 Entering Gaussian System, Link 0=g03
 Input=331244321working.txt
 Output=331244321working.out
 Initial command:
 /usr/g03/l1.exe /local/luhr/Gau-1571.inp -scrdir=/local/luhr/
 Entering Link 1 = /usr/g03/l1.exe PID=      1572.
  
 Copyright (c) 1988,1990,1992,1993,1995,1998,2003, Gaussian, Inc.
                  All Rights Reserved.
  
 This is the Gaussian(R) 03 program.  It is based on the
 the Gaussian(R) 98 system (copyright 1998, Gaussian, Inc.),
 the Gaussian(R) 94 system (copyright 1995, Gaussian, Inc.),
 the Gaussian 92(TM) system (copyright 1992, Gaussian, Inc.),
 the Gaussian 90(TM) system (copyright 1990, Gaussian, Inc.),
 the Gaussian 88(TM) system (copyright 1988, Gaussian, Inc.),
 the Gaussian 86(TM) system (copyright 1986, Carnegie Mellon
 University), and the Gaussian 82(TM) system (copyright 1983,
 Carnegie Mellon University). Gaussian is a federally registered
 trademark of Gaussian, Inc.
  
 This software contains proprietary and confidential information,
 including trade secrets, belonging to Gaussian, Inc.
  
 This software is provided under written license and may be
 used, copied, transmitted, or stored only in accord with that
 written license.
  
 The following legend is applicable only to US Government
 contracts under DFARS:
  
                    RESTRICTED RIGHTS LEGEND
  
 Use, duplication or disclosure by the US Government is subject
 to restrictions as set forth in subparagraph (c)(1)(ii) of the
 Rights in Technical Data and Computer Software clause at DFARS
 252.227-7013.
  
 Gaussian, Inc.
 Carnegie Office Park, Building 6, Pittsburgh, PA 15106 USA
  
 The following legend is applicable only to US Government
 contracts under FAR:
  
                    RESTRICTED RIGHTS LEGEND
  
 Use, reproduction and disclosure by the US Government is subject
 to restrictions as set forth in subparagraph (c) of the
 Commercial Computer Software - Restricted Rights clause at FAR
 52.227-19.
  
 Gaussian, Inc.
 Carnegie Office Park, Building 6, Pittsburgh, PA 15106 USA
  
  
 ---------------------------------------------------------------
 Warning -- This program may not be used in any manner that
 competes with the business of Gaussian, Inc. or will provide
 assistance to any competitor of Gaussian, Inc.  The licensee
 of this program is prohibited from giving any competitor of
 Gaussian, Inc. access to this program.  By using this program,
 the user acknowledges that Gaussian, Inc. is engaged in the
 business of creating and licensing software in the field of
 computational chemistry and represents and warrants to the
 licensee that it is not a competitor of Gaussian, Inc. and that
 it will not use this program in any manner prohibited above.
 ---------------------------------------------------------------
  

 Cite this work as:
 Gaussian 03, Revision B.04,
 M. J. Frisch, G. W. Trucks, H. B. Schlegel, G. E. Scuseria, 
 M. A. Robb, J. R. Cheeseman, J. A. Montgomery, Jr., T. Vreven, 
 K. N. Kudin, J. C. Burant, J. M. Millam, S. S. Iyengar, J. Tomasi, 
 V. Barone, B. Mennucci, M. Cossi, G. Scalmani, N. Rega, 
 G. A. Petersson, H. Nakatsuji, M. Hada, M. Ehara, K. Toyota, 
 R. Fukuda, J. Hasegawa, M. Ishida, T. Nakajima, Y. Honda, O. Kitao, 
 H. Nakai, M. Klene, X. Li, J. E. Knox, H. P. Hratchian, J. B. Cross, 
 C. Adamo, J. Jaramillo, R. Gomperts, R. E. Stratmann, O. Yazyev, 
 A. J. Austin, R. Cammi, C. Pomelli, J. W. Ochterski, P. Y. Ayala, 
 K. Morokuma, G. A. Voth, P. Salvador, J. J. Dannenberg, 
 V. G. Zakrzewski, S. Dapprich, A. D. Daniels, M. C. Strain, 
 O. Farkas, D. K. Malick, A. D. Rabuck, K. Raghavachari, 
 J. B. Foresman, J. V. Ortiz, Q. Cui, A. G. Baboul, S. Clifford, 
 J. Cioslowski, B. B. Stefanov, G. Liu, A. Liashenko, P. Piskorz, 
 I. Komaromi, R. L. Martin, D. J. Fox, T. Keith, M. A. Al-Laham, 
 C. Y. Peng, A. Nanayakkara, M. Challacombe, P. M. W. Gill, 
 B. Johnson, W. Chen, M. W. Wong, C. Gonzalez, and J. A. Pople, 
 Gaussian, Inc., Pittsburgh PA, 2003.
 
 *********************************************
 Gaussian 03:  x86-Linux-G03RevB.04 2-Jun-2003
                  12-Jun-2011 
 *********************************************
 %chk=331244321.chk
 --------------------------------
 #BHandHlyp/6-31G* SCF=tight Freq
 --------------------------------
 1/10=4,30=1,38=1/1,3;
 2/17=6,18=5,40=1/2;
 3/5=1,6=6,7=1,11=2,16=1,25=1,30=1,74=-3/1,2,3;
 4//1;
 5/5=2,32=2,38=5/2;
 8/6=4,10=90,11=11/1;
 11/6=1,8=1,9=11,15=111,16=1/1,2,10;
 10/6=1/2;
 6/7=2,8=2,9=2,10=2,18=1,28=1/1;
 7/8=1,10=1,25=1/1,2,3,16;
 1/10=4,30=1/3;
 99//99;
 ---
 cgg
 ---
 Symbolic Z-matrix:
 Charge =  0 Multiplicity = 1
 H                     0.77331   1.86613  -0.00062 
 S                     2.00616   2.2209   -0.37382 
 C                     2.93405   1.02341   0.6376 
 C                     2.78619  -0.43223   0.18847 
 C                     1.41386  -0.97478   0.58384 
 N                     0.8756   -1.84954  -0.27177 
 C                    -0.32931  -2.59162   0.02208 
 C                    -1.61514  -1.80838  -0.22383 
 N                    -1.81692  -0.78354   0.63737 
 C                    -2.92836   0.09892   0.48327 
 C                    -2.53526   1.46222  -0.0285 
 O                    -3.60697   2.24037  -0.18306 
 H                    -3.30002   3.09571  -0.50232 
 H                     2.6424    1.11639   1.67592 
 H                     3.97387   1.32263   0.54684 
 H                     3.48639  -1.02079   0.78279 
 N                     3.0694   -0.69701  -1.21009 
 H                     4.06267  -0.72366  -1.37411 
 H                     2.69266   0.05231  -1.77468 
 O                     0.88593  -0.6498    1.63758 
 H                     1.3938   -2.01616  -1.11581 
 H                    -0.29785  -2.91214   1.06057 
 H                    -0.36449  -3.46306  -0.61796 
 O                    -2.3921   -2.12138  -1.09796 
 H                    -1.05593  -0.53513   1.2509 
 H                    -3.46107   0.23865   1.42236 
 H                    -3.62405  -0.34836  -0.2187 
 O                    -1.42097   1.8356   -0.2591 
 

 GradGradGradGradGradGradGradGradGradGradGradGradGradGradGradGradGradGrad
 Berny optimization.
 Initialization pass.
 Trust Radius=3.00D-01 FncErr=1.00D-07 GrdErr=1.00D-07
 Number of steps in this run=   2 maximum allowed number of steps=   2.
 GradGradGradGradGradGradGradGradGradGradGradGradGradGradGradGradGradGrad

                          Input orientation:                          
 ---------------------------------------------------------------------
 Center     Atomic     Atomic              Coordinates (Angstroms)
 Number     Number      Type              X           Y           Z
 ---------------------------------------------------------------------
    1          1             0        0.773308    1.866132   -0.000617
    2         16             0        2.006155    2.220901   -0.373819
    3          6             0        2.934054    1.023412    0.637604
    4          6             0        2.786192   -0.432233    0.188469
    5          6             0        1.413855   -0.974783    0.583837
    6          7             0        0.875603   -1.849538   -0.271772
    7          6             0       -0.329308   -2.591618    0.022079
    8          6             0       -1.615139   -1.808377   -0.223828
    9          7             0       -1.816922   -0.783541    0.637372
   10          6             0       -2.928364    0.098922    0.483266
   11          6             0       -2.535257    1.462224   -0.028497
   12          8             0       -3.606972    2.240369   -0.183057
   13          1             0       -3.300017    3.095706   -0.502324
   14          1             0        2.642403    1.116387    1.675920
   15          1             0        3.973865    1.322630    0.546843
   16          1             0        3.486394   -1.020787    0.782793
   17          7             0        3.069397   -0.697008   -1.210086
   18          1             0        4.062671   -0.723657   -1.374114
   19          1             0        2.692662    0.052305   -1.774679
   20          8             0        0.885928   -0.649798    1.637583
   21          1             0        1.393801   -2.016159   -1.115814
   22          1             0       -0.297854   -2.912138    1.060566
   23          1             0       -0.364493   -3.463059   -0.617962
   24          8             0       -2.392102   -2.121376   -1.097957
   25          1             0       -1.055934   -0.535130    1.250895
   26          1             0       -3.461074    0.238653    1.422364
   27          1             0       -3.624048   -0.348357   -0.218700
   28          8             0       -1.420968    1.835602   -0.259101
 ---------------------------------------------------------------------
                    Distance matrix (angstroms):
                    1          2          3          4          5
     1  H    0.000000
     2  S    1.336059   0.000000
     3  C    2.405478   1.821525   0.000000
     4  C    3.061035   2.822011   1.530519   0.000000
     5  C    2.970300   3.388262   2.511310   1.527739   0.000000
     6  N    3.726955   4.225759   3.649387   2.422999   1.336779
     7  C    4.592147   5.363904   4.908854   3.794334   2.443020
     8  C    4.388225   5.419534   5.427361   4.629846   3.243764
     9  N    3.759932   4.966397   5.082996   4.638274   3.236875
    10  C    4.130321   5.439381   5.936872   5.746754   4.474128
    11  C    3.333245   4.617279   5.527170   5.652775   4.680752
    12  O    4.400022   5.616401   6.703692   6.939264   6.011159
    13  H    4.284336   5.379336   6.667644   7.068627   6.322121
    14  H    2.620384   2.413751   1.082499   2.152071   2.659881
    15  H    3.292214   2.350828   1.085807   2.149080   3.439931
    16  H    4.038424   3.746652   2.122477   1.090825   2.082575
    17  N    3.647537   3.216212   2.528264   1.451298   2.456855
    18  H    4.406065   3.728307   2.893620   2.038625   3.303462
    19  H    3.181381   2.671425   2.611595   2.024222   2.872778
    20  O    3.004378   3.679886   2.827439   2.399639   1.222580
    21  H    4.086668   4.344906   3.832212   2.479663   1.993409
    22  H    5.010525   5.806376   5.110057   4.052385   2.628795
    23  H    5.484157   6.163358   5.708352   4.445566   3.286086
    24  O    5.208089   6.222894   6.424158   5.596680   4.316065
    25  H    3.267792   4.428520   4.327260   3.987640   2.595789
    26  H    4.754319   6.086557   6.490713   6.403196   5.093180
    27  H    4.928312   6.190665   6.754532   6.423706   5.139741
    28  O    2.209659   3.450621   4.519950   4.800374   4.079832
                    6          7          8          9         10
     6  N    0.000000
     7  C    1.445283   0.000000
     8  C    2.491543   1.525548   0.000000
     9  N    3.035224   2.420893   1.353762   0.000000
    10  C    4.340132   3.769190   2.421225   1.427513   0.000000
    11  C    4.760348   4.615453   3.403175   2.450071   1.508319
    12  O    6.068664   5.842368   4.512361   3.608520   2.343137
    13  H    6.476449   6.437839   5.192919   4.306627   3.176512
    14  H    3.963811   5.031457   5.503631   4.957206   5.787150
    15  H    4.509103   5.840720   6.452449   6.162578   7.010155
    16  H    2.935160   4.195924   5.259204   5.310611   6.518634
    17  N    2.649810   4.081541   4.914542   5.224625   6.282840
    18  H    3.555301   4.972737   5.893836   6.214441   7.280183
    19  H    3.029429   4.398974   4.942107   5.181986   6.057757
    20  O    2.255021   2.803091   3.326033   2.885084   4.054855
    21  H    1.004340   2.143609   3.145240   3.860279   5.070674
    22  H    2.069117   1.087280   2.145506   2.649073   4.039720
    23  H    2.064252   1.081804   2.111263   3.296245   4.524803
    24  O    3.381475   2.393894   1.210678   2.265392   2.778051
    25  H    2.788731   2.503421   2.026987   1.008574   2.120677
    26  H    5.102686   4.447380   3.210569   2.089098   1.088673
    27  H    4.743756   3.993182   2.483425   2.046448   1.084800
    28  O    4.342195   4.568486   3.649319   2.796489   2.416487
                   11         12         13         14         15
    11  C    0.000000
    12  O    1.333406   0.000000
    13  H    1.864841   0.963200   0.000000
    14  H    5.461941   6.616179   6.631350   0.000000
    15  H    6.535990   7.670990   7.560020   1.757880   0.000000
    16  H    6.563826   7.866629   8.040673   2.465261   2.405183
    17  N    6.121322   7.365927   7.446814   3.435077   2.825562
    18  H    7.079648   8.308278   8.340068   3.834792   2.808069
    19  H    5.689302   6.856112   6.840569   3.611292   2.940182
    20  O    4.352122   5.643930   6.010835   2.491201   3.823028
    21  H    5.359002   6.632933   6.967027   4.377857   4.535270
    22  H    5.032601   6.248615   6.895636   5.025215   6.036949
    23  H    5.414619   6.575097   7.186659   5.939246   6.563607
    24  O    3.742516   4.619282   5.328887   6.597253   7.422404
    25  H    2.795472   4.033287   4.614397   4.072573   5.407942
    26  H    2.111696   2.570123   3.448640   6.171478   7.564381
    27  H    2.121284   2.589028   3.470880   6.708462   7.817067
    28  O    1.197593   2.224462   2.275488   4.557692   5.478769
                   16         17         18         19         20
    16  H    0.000000
    17  N    2.061622   0.000000
    18  H    2.252250   1.007079   0.000000
    19  H    2.884822   1.011022   1.624652   0.000000
    20  O    2.762376   3.588730   4.378067   3.924381   0.000000
    21  H    2.995734   2.134635   2.976600   2.529760   3.115457
    22  H    4.239682   4.626126   5.452641   5.076389   2.617722
    23  H    4.770339   4.448960   5.260786   4.800206   3.816474
    24  O    6.269388   5.645296   6.610142   5.571146   4.515994
    25  H    4.592137   4.806349   5.755548   4.852953   1.983306
    26  H    7.089609   7.102979   8.084124   6.937166   4.442082
    27  H    7.212041   6.775442   7.782126   6.517854   4.886362
    28  O    5.772928   5.242315   6.153321   4.732766   3.885408
                   21         22         23         24         25
    21  H    0.000000
    22  H    2.898466   0.000000
    23  H    2.330874   1.767883   0.000000
    24  O    3.787407   3.109727   2.478247   0.000000
    25  H    3.714291   2.502215   3.541678   3.133469   0.000000
    26  H    5.924216   4.479324   5.239696   3.614479   2.532359
    27  H    5.363319   4.390109   4.526089   2.331176   2.964760
    28  O    4.846952   5.054101   5.414862   4.159862   2.834380
                   26         27         28
    26  H    0.000000
    27  H    1.750495   0.000000
    28  O    3.088625   3.102398   0.000000
 Stoichiometry    C7H13N3O4S
 Framework group  C1[X(C7H13N3O4S)]
 Deg. of freedom    78
 Full point group                 C1      NOp   1
 Largest Abelian subgroup         C1      NOp   1
 Largest concise Abelian subgroup C1      NOp   1
                         Standard orientation:                         
 ---------------------------------------------------------------------
 Center     Atomic     Atomic              Coordinates (Angstroms)
 Number     Number      Type              X           Y           Z
 ---------------------------------------------------------------------
    1          1             0        0.773308    1.866132   -0.000617
    2         16             0        2.006155    2.220901   -0.373819
    3          6             0        2.934054    1.023412    0.637604
    4          6             0        2.786192   -0.432233    0.188469
    5          6             0        1.413855   -0.974783    0.583837
    6          7             0        0.875603   -1.849538   -0.271772
    7          6             0       -0.329308   -2.591618    0.022079
    8          6             0       -1.615139   -1.808377   -0.223828
    9          7             0       -1.816922   -0.783541    0.637372
   10          6             0       -2.928364    0.098922    0.483266
   11          6             0       -2.535257    1.462224   -0.028497
   12          8             0       -3.606972    2.240369   -0.183057
   13          1             0       -3.300017    3.095706   -0.502324
   14          1             0        2.642403    1.116387    1.675920
   15          1             0        3.973865    1.322630    0.546843
   16          1             0        3.486394   -1.020787    0.782793
   17          7             0        3.069397   -0.697008   -1.210086
   18          1             0        4.062671   -0.723657   -1.374114
   19          1             0        2.692662    0.052305   -1.774679
   20          8             0        0.885928   -0.649798    1.637583
   21          1             0        1.393801   -2.016159   -1.115814
   22          1             0       -0.297854   -2.912138    1.060566
   23          1             0       -0.364493   -3.463059   -0.617962
   24          8             0       -2.392102   -2.121376   -1.097957
   25          1             0       -1.055934   -0.535130    1.250895
   26          1             0       -3.461074    0.238653    1.422364
   27          1             0       -3.624048   -0.348357   -0.218700
   28          8             0       -1.420968    1.835602   -0.259101
 ---------------------------------------------------------------------
 Rotational constants (GHZ):      0.6543362      0.3834043      0.2742203
 Standard basis: 6-31G(d) (6D, 7F)
 There are   255 symmetry adapted basis functions of A   symmetry.
 Integral buffers will be    262144 words long.
 Raffenetti 2 integral format.
 Two-electron integral symmetry is turned on.
   255 basis functions,   496 primitive gaussians,   255 cartesian basis functions
    62 alpha electrons       62 beta electrons
       nuclear repulsion energy      1187.0705701966 Hartrees.
 NAtoms=   28 NActive=   28 NUniq=   28 SFac= 1.00D+00 NAtFMM=   60 Big=F
 One-electron integrals computed using PRISM.
 NBasis=   255 RedAO= T  NBF=   255
 NBsUse=   255 1.00D-06 NBFU=   255
 Harris functional with IExCor=  402 diagonalized for initial guess.
 ExpMin= 1.17D-01 ExpMax= 2.19D+04 ExpMxC= 3.30D+03 IAcc=1 IRadAn=         1 AccDes= 1.00D-06
 HarFok:  IExCor= 402 AccDes= 1.00D-06 IRadAn=         1 IDoV=1
 ScaDFX=  1.000000  1.000000  1.000000  1.000000
 Initial guess orbital symmetries:
       Occupied  (A) (A) (A) (A) (A) (A) (A) (A) (A) (A) (A) (A)
                 (A) (A) (A) (A) (A) (A) (A) (A) (A) (A) (A) (A)
                 (A) (A) (A) (A) (A) (A) (A) (A) (A) (A) (A) (A)
                 (A) (A) (A) (A) (A) (A) (A) (A) (A) (A) (A) (A)
                 (A) (A) (A) (A) (A) (A) (A) (A) (A) (A) (A) (A)
                 (A) (A)
       Virtual   (A) (A) (A) (A) (A) (A) (A) (A) (A) (A) (A) (A)
                 (A) (A) (A) (A) (A) (A) (A) (A) (A) (A) (A) (A)
                 (A) (A) (A) (A) (A) (A) (A) (A) (A) (A) (A) (A)
                 (A) (A) (A) (A) (A) (A) (A) (A) (A) (A) (A) (A)
                 (A) (A) (A) (A) (A) (A) (A) (A) (A) (A) (A) (A)
                 (A) (A) (A) (A) (A) (A) (A) (A) (A) (A) (A) (A)
                 (A) (A) (A) (A) (A) (A) (A) (A) (A) (A) (A) (A)
                 (A) (A) (A) (A) (A) (A) (A) (A) (A) (A) (A) (A)
                 (A) (A) (A) (A) (A) (A) (A) (A) (A) (A) (A) (A)
                 (A) (A) (A) (A) (A) (A) (A) (A) (A) (A) (A) (A)
                 (A) (A) (A) (A) (A) (A) (A) (A) (A) (A) (A) (A)
                 (A) (A) (A) (A) (A) (A) (A) (A) (A) (A) (A) (A)
                 (A) (A) (A) (A) (A) (A) (A) (A) (A) (A) (A) (A)
                 (A) (A) (A) (A) (A) (A) (A) (A) (A) (A) (A) (A)
                 (A) (A) (A) (A) (A) (A) (A) (A) (A) (A) (A) (A)
                 (A) (A) (A) (A) (A) (A) (A) (A) (A) (A) (A) (A)
                 (A)
 The electronic state of the initial guess is 1-A.
 Requested convergence on RMS density matrix=1.00D-08 within 128 cycles.
 Requested convergence on MAX density matrix=1.00D-06.
 Requested convergence on             energy=1.00D-06.
 No special actions if energy rises.
 Integral accuracy reduced to 1.0D-05 until final iterations.
 Initial convergence to 1.0D-05 achieved.  Increase integral accuracy.
 SCF Done:  E(RB+HF-LYP) =  -1137.52458178     A.U. after   14 cycles
             Convg  =    0.5273D-08             -V/T =  2.0056
             S**2   =   0.0000
 Range of M.O.s used for correlation:     1   255
 NBasis=   255 NAE=    62 NBE=    62 NFC=     0 NFV=     0
 NROrb=    255 NOA=    62 NOB=    62 NVA=   193 NVB=   193
 Symmetrizing basis deriv contribution to polar:
 IMax=3 JMax=2 DiffMx= 0.00D+00
 G2DrvN: will do   15 centers at a time, making    2 passes doing MaxLOS=2.
 FoFDir/FoFCou used for L=0 through L=2.
          Differentiating once with respect to electric field.
                with respect to dipole field.
          Differentiating once with respect to nuclear coordinates.
 Integrals replicated using symmetry in FoFDir.
 MinBra= 0 MaxBra= 2 Meth= 1.
 IRaf=       0 NMat=  44 IRICut=      44 DoRegI=T DoRafI=T ISym2E= 2 JSym2E=2.
          There are  87 degrees of freedom in the 1st order CPHF.
    85 vectors were produced by pass  0.
 AX will form  43 AO Fock derivatives at one time.
    84 vectors were produced by pass  1.
    84 vectors were produced by pass  2.
    84 vectors were produced by pass  3.
    84 vectors were produced by pass  4.
    84 vectors were produced by pass  5.
    42 vectors were produced by pass  6.
     3 vectors were produced by pass  7.
 Inv2:  IOpt= 1 Iter= 1 AM= 4.64D-15 Conv= 1.00D-12.
 Inverted reduced A of dimension  550 with in-core refinement.
 Isotropic polarizability for W=    0.000000      111.07 Bohr**3.
 End of Minotr Frequency-dependent properties file   721 does not exist.

 **********************************************************************

            Population analysis using the SCF density.

 **********************************************************************

 Orbital symmetries:
       Occupied  (A) (A) (A) (A) (A) (A) (A) (A) (A) (A) (A) (A)
                 (A) (A) (A) (A) (A) (A) (A) (A) (A) (A) (A) (A)
                 (A) (A) (A) (A) (A) (A) (A) (A) (A) (A) (A) (A)
                 (A) (A) (A) (A) (A) (A) (A) (A) (A) (A) (A) (A)
                 (A) (A) (A) (A) (A) (A) (A) (A) (A) (A) (A) (A)
                 (A) (A)
       Virtual   (A) (A) (A) (A) (A) (A) (A) (A) (A) (A) (A) (A)
                 (A) (A) (A) (A) (A) (A) (A) (A) (A) (A) (A) (A)
                 (A) (A) (A) (A) (A) (A) (A) (A) (A) (A) (A) (A)
                 (A) (A) (A) (A) (A) (A) (A) (A) (A) (A) (A) (A)
                 (A) (A) (A) (A) (A) (A) (A) (A) (A) (A) (A) (A)
                 (A) (A) (A) (A) (A) (A) (A) (A) (A) (A) (A) (A)
                 (A) (A) (A) (A) (A) (A) (A) (A) (A) (A) (A) (A)
                 (A) (A) (A) (A) (A) (A) (A) (A) (A) (A) (A) (A)
                 (A) (A) (A) (A) (A) (A) (A) (A) (A) (A) (A) (A)
                 (A) (A) (A) (A) (A) (A) (A) (A) (A) (A) (A) (A)
                 (A) (A) (A) (A) (A) (A) (A) (A) (A) (A) (A) (A)
                 (A) (A) (A) (A) (A) (A) (A) (A) (A) (A) (A) (A)
                 (A) (A) (A) (A) (A) (A) (A) (A) (A) (A) (A) (A)
                 (A) (A) (A) (A) (A) (A) (A) (A) (A) (A) (A) (A)
                 (A) (A) (A) (A) (A) (A) (A) (A) (A) (A) (A) (A)
                 (A) (A) (A) (A) (A) (A) (A) (A) (A) (A) (A) (A)
                 (A)
 The electronic state is 1-A.
 Alpha  occ. eigenvalues --  -90.04289 -19.75637 -19.70025 -19.67237 -19.66008
 Alpha  occ. eigenvalues --  -14.84528 -14.82924 -14.81183 -10.74602 -10.70786
 Alpha  occ. eigenvalues --  -10.69890 -10.64562 -10.64160 -10.63843 -10.62378
 Alpha  occ. eigenvalues --   -8.32010  -6.17878  -6.17595  -6.17130  -1.27011
 Alpha  occ. eigenvalues --   -1.19251  -1.17908  -1.17080  -1.06797  -1.05250
 Alpha  occ. eigenvalues --   -1.03135  -0.89844  -0.88024  -0.83921  -0.80151
 Alpha  occ. eigenvalues --   -0.72895  -0.71331  -0.67411  -0.66616  -0.62604
 Alpha  occ. eigenvalues --   -0.60630  -0.59607  -0.58698  -0.57836  -0.56735
 Alpha  occ. eigenvalues --   -0.55047  -0.54709  -0.52104  -0.51230  -0.50439
 Alpha  occ. eigenvalues --   -0.49738  -0.48746  -0.47959  -0.47476  -0.45796
 Alpha  occ. eigenvalues --   -0.44962  -0.44150  -0.42648  -0.40091  -0.37877
 Alpha  occ. eigenvalues --   -0.36389  -0.35460  -0.34772  -0.32029  -0.31501
 Alpha  occ. eigenvalues --   -0.30607  -0.28822
 Alpha virt. eigenvalues --    0.06179   0.06227   0.08073   0.09483   0.11924
 Alpha virt. eigenvalues --    0.12403   0.14593   0.15829   0.16449   0.16953
 Alpha virt. eigenvalues --    0.19250   0.19440   0.20698   0.21521   0.22558
 Alpha virt. eigenvalues --    0.22799   0.23944   0.25962   0.27756   0.29492
 Alpha virt. eigenvalues --    0.29889   0.30811   0.32196   0.34889   0.36061
 Alpha virt. eigenvalues --    0.37303   0.39121   0.41448   0.43299   0.44945
 Alpha virt. eigenvalues --    0.45568   0.46388   0.49369   0.52011   0.56244
 Alpha virt. eigenvalues --    0.59469   0.59814   0.60254   0.60955   0.61913
 Alpha virt. eigenvalues --    0.63248   0.65353   0.65592   0.67218   0.68602
 Alpha virt. eigenvalues --    0.70153   0.72099   0.74215   0.74855   0.76246
 Alpha virt. eigenvalues --    0.77098   0.77711   0.78954   0.79660   0.80654
 Alpha virt. eigenvalues --    0.82393   0.84155   0.84569   0.85739   0.87583
 Alpha virt. eigenvalues --    0.88729   0.89309   0.92188   0.92672   0.93717
 Alpha virt. eigenvalues --    0.94766   0.94899   0.96165   0.97271   0.97535
 Alpha virt. eigenvalues --    0.98953   1.00256   1.00841   1.01683   1.02222
 Alpha virt. eigenvalues --    1.03006   1.04034   1.04944   1.05435   1.05630
 Alpha virt. eigenvalues --    1.08220   1.09451   1.10698   1.11590   1.14377
 Alpha virt. eigenvalues --    1.15588   1.16333   1.18033   1.18359   1.20159
 Alpha virt. eigenvalues --    1.22550   1.26342   1.27688   1.30993   1.34959
 Alpha virt. eigenvalues --    1.36718   1.40736   1.41015   1.45456   1.46744
 Alpha virt. eigenvalues --    1.48354   1.49370   1.51994   1.52624   1.54623
 Alpha virt. eigenvalues --    1.58181   1.59898   1.61385   1.63202   1.65144
 Alpha virt. eigenvalues --    1.68277   1.69410   1.74980   1.77359   1.79071
 Alpha virt. eigenvalues --    1.81983   1.83032   1.85841   1.86585   1.88694
 Alpha virt. eigenvalues --    1.90314   1.90771   1.91848   1.92551   1.94176
 Alpha virt. eigenvalues --    1.96134   1.97664   1.98722   2.02361   2.02519
 Alpha virt. eigenvalues --    2.04096   2.06060   2.07215   2.08587   2.10521
 Alpha virt. eigenvalues --    2.12897   2.15227   2.17275   2.19111   2.21250
 Alpha virt. eigenvalues --    2.21893   2.24083   2.24326   2.27139   2.29042
 Alpha virt. eigenvalues --    2.32106   2.36521   2.39773   2.44173   2.45625
 Alpha virt. eigenvalues --    2.47480   2.51381   2.52476   2.53653   2.54949
 Alpha virt. eigenvalues --    2.58621   2.59090   2.60852   2.63943   2.66587
 Alpha virt. eigenvalues --    2.70352   2.75287   2.75805   2.77908   2.79935
 Alpha virt. eigenvalues --    2.84605   2.86104   2.87668   2.88924   2.99323
 Alpha virt. eigenvalues --    3.06718   3.08154   3.12231   3.16667   3.17813
 Alpha virt. eigenvalues --    3.24232   3.29088   3.32302   3.94321   3.98451
 Alpha virt. eigenvalues --    4.07450   4.12394   4.20274   4.23700   4.28713
 Alpha virt. eigenvalues --    4.32596   4.38455   4.41453   4.50144   4.54886
 Alpha virt. eigenvalues --    4.65131   4.72341   4.79732
          Condensed to atoms (all electrons):
              1          2          3          4          5          6
     1  H    0.581295   0.273757  -0.019141  -0.004883   0.005103  -0.000481
     2  S    0.273757  15.733450   0.252620  -0.059794  -0.005910   0.000554
     3  C   -0.019141   0.252620   5.333154   0.321026  -0.059680   0.003486
     4  C   -0.004883  -0.059794   0.321026   5.130412   0.355139  -0.113465
     5  C    0.005103  -0.005910  -0.059680   0.355139   4.313448   0.327931
     6  N   -0.000481   0.000554   0.003486  -0.113465   0.327931   7.159725
     7  C   -0.000002  -0.000050  -0.000105   0.006317  -0.029837   0.220554
     8  C    0.000048   0.000001   0.000027  -0.000283  -0.005550  -0.045064
     9  N    0.000141  -0.000022  -0.000011  -0.000051   0.005110   0.005471
    10  C   -0.000153   0.000048   0.000002   0.000002  -0.000348  -0.000411
    11  C   -0.000323  -0.000017  -0.000005  -0.000002   0.000070   0.000052
    12  O    0.000060  -0.000022   0.000000   0.000000   0.000000   0.000000
    13  H   -0.000013   0.000012   0.000000   0.000000   0.000000   0.000000
    14  H   -0.004852  -0.032194   0.361862  -0.037824  -0.002894   0.000392
    15  H    0.002998  -0.042696   0.373496  -0.037692   0.005343  -0.000082
    16  H   -0.000037   0.006168  -0.035057   0.375016  -0.035205  -0.001027
    17  N   -0.000047  -0.013955  -0.071692   0.294493  -0.065955  -0.011575
    18  H    0.000010   0.000749  -0.000373  -0.031553   0.005404   0.000036
    19  H   -0.000748   0.023509  -0.006202  -0.040108  -0.001873   0.000598
    20  O    0.002164  -0.002423  -0.000117  -0.077620   0.523648  -0.101643
    21  H   -0.000012  -0.000101   0.000968  -0.005932  -0.022322   0.299814
    22  H   -0.000003   0.000006  -0.000033   0.000092  -0.001065  -0.045258
    23  H   -0.000001   0.000000  -0.000001  -0.000071   0.004182  -0.030893
    24  O    0.000000   0.000000   0.000000  -0.000001  -0.000061   0.000706
    25  H    0.000250  -0.000158  -0.000003   0.000837  -0.000434  -0.005233
    26  H    0.000000   0.000001   0.000000   0.000000   0.000016  -0.000005
    27  H    0.000002  -0.000001   0.000000   0.000000  -0.000007  -0.000031
    28  O    0.009348  -0.006596   0.000036   0.000025   0.000407  -0.000040
              7          8          9         10         11         12
     1  H   -0.000002   0.000048   0.000141  -0.000153  -0.000323   0.000060
     2  S   -0.000050   0.000001  -0.000022   0.000048  -0.000017  -0.000022
     3  C   -0.000105   0.000027  -0.000011   0.000002  -0.000005   0.000000
     4  C    0.006317  -0.000283  -0.000051   0.000002  -0.000002   0.000000
     5  C   -0.029837  -0.005550   0.005110  -0.000348   0.000070   0.000000
     6  N    0.220554  -0.045064   0.005471  -0.000411   0.000052   0.000000
     7  C    5.154728   0.348385  -0.125370   0.006902  -0.000154   0.000000
     8  C    0.348385   4.267888   0.280671  -0.029828  -0.000011   0.000012
     9  N   -0.125370   0.280671   7.244230   0.237751  -0.053338   0.002366
    10  C    0.006902  -0.029828   0.237751   5.140893   0.334185  -0.098127
    11  C   -0.000154  -0.000011  -0.053338   0.334185   4.251427   0.289822
    12  O    0.000000   0.000012   0.002366  -0.098127   0.289822   8.264224
    13  H    0.000000  -0.000005  -0.000263   0.009149  -0.006334   0.231102
    14  H   -0.000016   0.000002   0.000006   0.000000   0.000001   0.000000
    15  H    0.000002   0.000000   0.000000   0.000000   0.000000   0.000000
    16  H   -0.000270  -0.000002   0.000000   0.000000   0.000000   0.000000
    17  N    0.000352  -0.000013   0.000004   0.000000   0.000000   0.000000
    18  H    0.000009  -0.000001   0.000000   0.000000   0.000000   0.000000
    19  H   -0.000076   0.000004  -0.000001   0.000000   0.000000   0.000000
    20  O    0.010118  -0.003807  -0.019465   0.000672  -0.000047   0.000000
    21  H   -0.021960   0.001152  -0.000005   0.000008  -0.000001   0.000000
    22  H    0.371140  -0.039854   0.005447  -0.000209   0.000005   0.000000
    23  H    0.368951  -0.035103   0.005542  -0.000144   0.000002   0.000000
    24  O   -0.074347   0.618288  -0.107672  -0.003006  -0.000067  -0.000003
    25  H    0.000944  -0.010031   0.269403  -0.023190   0.000306   0.000040
    26  H   -0.000106   0.002620  -0.038771   0.377682  -0.040507   0.004453
    27  H    0.000948  -0.000752  -0.038822   0.365658  -0.023863   0.003175
    28  O   -0.000056   0.001798   0.000747  -0.083079   0.604391  -0.086226
             13         14         15         16         17         18
     1  H   -0.000013  -0.004852   0.002998  -0.000037  -0.000047   0.000010
     2  S    0.000012  -0.032194  -0.042696   0.006168  -0.013955   0.000749
     3  C    0.000000   0.361862   0.373496  -0.035057  -0.071692  -0.000373
     4  C    0.000000  -0.037824  -0.037692   0.375016   0.294493  -0.031553
     5  C    0.000000  -0.002894   0.005343  -0.035205  -0.065955   0.005404
     6  N    0.000000   0.000392  -0.000082  -0.001027  -0.011575   0.000036
     7  C    0.000000  -0.000016   0.000002  -0.000270   0.000352   0.000009
     8  C   -0.000005   0.000002   0.000000  -0.000002  -0.000013  -0.000001
     9  N   -0.000263   0.000006   0.000000   0.000000   0.000004   0.000000
    10  C    0.009149   0.000000   0.000000   0.000000   0.000000   0.000000
    11  C   -0.006334   0.000001   0.000000   0.000000   0.000000   0.000000
    12  O    0.231102   0.000000   0.000000   0.000000   0.000000   0.000000
    13  H    0.316941   0.000000   0.000000   0.000000   0.000000   0.000000
    14  H    0.000000   0.498568  -0.022813   0.000526   0.004164  -0.000077
    15  H    0.000000  -0.022813   0.539864  -0.004795   0.000761   0.001714
    16  H    0.000000   0.000526  -0.004795   0.539098  -0.036926  -0.007111
    17  N    0.000000   0.004164   0.000761  -0.036926   7.033206   0.321342
    18  H    0.000000  -0.000077   0.001714  -0.007111   0.321342   0.402173
    19  H    0.000000   0.000303  -0.000215   0.005188   0.316687  -0.025295
    20  O    0.000000   0.010289   0.000204   0.000488   0.001780  -0.000069
    21  H    0.000000  -0.000069  -0.000019   0.000346   0.034492  -0.000401
    22  H    0.000000   0.000000   0.000000   0.000028  -0.000031   0.000002
    23  H    0.000000   0.000000   0.000000   0.000008  -0.000006   0.000000
    24  O    0.000000   0.000000   0.000000   0.000000   0.000000   0.000000
    25  H   -0.000005  -0.000019   0.000001  -0.000004  -0.000034   0.000000
    26  H   -0.000500   0.000000   0.000000   0.000000   0.000000   0.000000
    27  H   -0.000338   0.000000   0.000000   0.000000   0.000000   0.000000
    28  O    0.009388   0.000014  -0.000001   0.000000   0.000000   0.000000
             19         20         21         22         23         24
     1  H   -0.000748   0.002164  -0.000012  -0.000003  -0.000001   0.000000
     2  S    0.023509  -0.002423  -0.000101   0.000006   0.000000   0.000000
     3  C   -0.006202  -0.000117   0.000968  -0.000033  -0.000001   0.000000
     4  C   -0.040108  -0.077620  -0.005932   0.000092  -0.000071  -0.000001
     5  C   -0.001873   0.523648  -0.022322  -0.001065   0.004182  -0.000061
     6  N    0.000598  -0.101643   0.299814  -0.045258  -0.030893   0.000706
     7  C   -0.000076   0.010118  -0.021960   0.371140   0.368951  -0.074347
     8  C    0.000004  -0.003807   0.001152  -0.039854  -0.035103   0.618288
     9  N   -0.000001  -0.019465  -0.000005   0.005447   0.005542  -0.107672
    10  C    0.000000   0.000672   0.000008  -0.000209  -0.000144  -0.003006
    11  C    0.000000  -0.000047  -0.000001   0.000005   0.000002  -0.000067
    12  O    0.000000   0.000000   0.000000   0.000000   0.000000  -0.000003
    13  H    0.000000   0.000000   0.000000   0.000000   0.000000   0.000000
    14  H    0.000303   0.010289  -0.000069   0.000000   0.000000   0.000000
    15  H   -0.000215   0.000204  -0.000019   0.000000   0.000000   0.000000
    16  H    0.005188   0.000488   0.000346   0.000028   0.000008   0.000000
    17  N    0.316687   0.001780   0.034492  -0.000031  -0.000006   0.000000
    18  H   -0.025295  -0.000069  -0.000401   0.000002   0.000000   0.000000
    19  H    0.369560   0.000001  -0.000828   0.000001   0.000001   0.000000
    20  O    0.000001   8.209424   0.002787   0.006218   0.000403  -0.000001
    21  H   -0.000828   0.002787   0.314045   0.002082  -0.003306   0.000042
    22  H    0.000001   0.006218   0.002082   0.514797  -0.017524   0.001965
    23  H    0.000001   0.000403  -0.003306  -0.017524   0.500039   0.006316
    24  O    0.000000  -0.000001   0.000042   0.001965   0.006316   8.082573
    25  H    0.000003   0.044929  -0.000083  -0.000650  -0.000030   0.002405
    26  H    0.000000  -0.000010   0.000000  -0.000007   0.000002   0.000462
    27  H    0.000000  -0.000008   0.000000  -0.000059  -0.000021   0.020394
    28  O    0.000002  -0.000138  -0.000001   0.000001   0.000000  -0.000036
             25         26         27         28
     1  H    0.000250   0.000000   0.000002   0.009348
     2  S   -0.000158   0.000001  -0.000001  -0.006596
     3  C   -0.000003   0.000000   0.000000   0.000036
     4  C    0.000837   0.000000   0.000000   0.000025
     5  C   -0.000434   0.000016  -0.000007   0.000407
     6  N   -0.005233  -0.000005  -0.000031  -0.000040
     7  C    0.000944  -0.000106   0.000948  -0.000056
     8  C   -0.010031   0.002620  -0.000752   0.001798
     9  N    0.269403  -0.038771  -0.038822   0.000747
    10  C   -0.023190   0.377682   0.365658  -0.083079
    11  C    0.000306  -0.040507  -0.023863   0.604391
    12  O    0.000040   0.004453   0.003175  -0.086226
    13  H   -0.000005  -0.000500  -0.000338   0.009388
    14  H   -0.000019   0.000000   0.000000   0.000014
    15  H    0.000001   0.000000   0.000000  -0.000001
    16  H   -0.000004   0.000000   0.000000   0.000000
    17  N   -0.000034   0.000000   0.000000   0.000000
    18  H    0.000000   0.000000   0.000000   0.000000
    19  H    0.000003   0.000000   0.000000   0.000002
    20  O    0.044929  -0.000010  -0.000008  -0.000138
    21  H   -0.000083   0.000000   0.000000  -0.000001
    22  H   -0.000650  -0.000007  -0.000059   0.000001
    23  H   -0.000030   0.000002  -0.000021   0.000000
    24  O    0.002405   0.000462   0.020394  -0.000036
    25  H    0.304408  -0.001076   0.002741   0.003572
    26  H   -0.001076   0.508386  -0.018991   0.000751
    27  H    0.002741  -0.018991   0.442823   0.000820
    28  O    0.003572   0.000751   0.000820   8.044777
 Mulliken atomic charges:
              1
     1  H    0.155518
     2  S   -0.126938
     3  C   -0.454258
     4  C   -0.074080
     5  C    0.685342
     6  N   -0.664113
     7  C   -0.237001
     8  C    0.649407
     9  N   -0.673099
    10  C   -0.234456
    11  C    0.644409
    12  O   -0.610877
    13  H    0.440864
    14  H    0.224629
    15  H    0.183932
    16  H    0.193570
    17  N   -0.807047
    18  H    0.333440
    19  H    0.359489
    20  O   -0.607777
    21  H    0.399304
    22  H    0.202908
    23  H    0.201654
    24  O   -0.547958
    25  H    0.411111
    26  H    0.205602
    27  H    0.246331
    28  O   -0.499905
 Sum of Mulliken charges=   0.00000
 Atomic charges with hydrogens summed into heavy atoms:
              1
     1  H    0.000000
     2  S    0.028580
     3  C   -0.045697
     4  C    0.119490
     5  C    0.685342
     6  N   -0.264809
     7  C    0.167560
     8  C    0.649407
     9  N   -0.261987
    10  C    0.217477
    11  C    0.644409
    12  O   -0.170013
    13  H    0.000000
    14  H    0.000000
    15  H    0.000000
    16  H    0.000000
    17  N   -0.114117
    18  H    0.000000
    19  H    0.000000
    20  O   -0.607777
    21  H    0.000000
    22  H    0.000000
    23  H    0.000000
    24  O   -0.547958
    25  H    0.000000
    26  H    0.000000
    27  H    0.000000
    28  O   -0.499905
 Sum of Mulliken charges=   0.00000
 APT atomic charges:
              1
     1  H    0.128400
     2  S   -0.170259
     3  C    0.118859
     4  C    0.248001
     5  C    0.969201
     6  N   -0.769480
     7  C    0.312337
     8  C    1.030509
     9  N   -0.810478
    10  C    0.261902
    11  C    1.209809
    12  O   -0.808135
    13  H    0.318180
    14  H    0.004612
    15  H   -0.021422
    16  H   -0.044612
    17  N   -0.533383
    18  H    0.149403
    19  H    0.202612
    20  O   -0.836327
    21  H    0.278956
    22  H   -0.001839
    23  H    0.002256
    24  O   -0.795013
    25  H    0.311798
    26  H   -0.007921
    27  H    0.080690
    28  O   -0.828659
 Sum of APT charges=   0.00000
 APT Atomic charges with hydrogens summed into heavy atoms:
              1
     1  H    0.000000
     2  S   -0.041859
     3  C    0.102049
     4  C    0.203389
     5  C    0.969201
     6  N   -0.490524
     7  C    0.312754
     8  C    1.030509
     9  N   -0.498680
    10  C    0.334672
    11  C    1.209809
    12  O   -0.489955
    13  H    0.000000
    14  H    0.000000
    15  H    0.000000
    16  H    0.000000
    17  N   -0.181367
    18  H    0.000000
    19  H    0.000000
    20  O   -0.836327
    21  H    0.000000
    22  H    0.000000
    23  H    0.000000
    24  O   -0.795013
    25  H    0.000000
    26  H    0.000000
    27  H    0.000000
    28  O   -0.828659
 Sum of APT charges=   0.00000
 Electronic spatial extent (au):  <R**2>=  3994.3372
 Charge=     0.0000 electrons
 Dipole moment (field-independent basis, Debye):
    X=     2.3020    Y=    -0.0620    Z=     0.6421  Tot=     2.3907
 Quadrupole moment (field-independent basis, Debye-Ang):
   XX=   -82.1824   YY=   -94.1275   ZZ=   -98.2336
   XY=   -14.4142   XZ=    -6.4123   YZ=    -2.8040
 Traceless Quadrupole moment (field-independent basis, Debye-Ang):
   XX=     9.3321   YY=    -2.6130   ZZ=    -6.7191
   XY=   -14.4142   XZ=    -6.4123   YZ=    -2.8040
 Octapole moment (field-independent basis, Debye-Ang**2):
  XXX=    56.7038  YYY=     2.5101  ZZZ=    -7.5328  XYY=   -27.4039
  XXY=    24.1700  XXZ=     8.8465  XZZ=    -3.7045  YZZ=     9.5169
  YYZ=     3.5260  XYZ=    18.3876
 Hexadecapole moment (field-independent basis, Debye-Ang**3):
 XXXX= -2771.5888 YYYY= -1555.8465 ZZZZ=  -396.0124 XXXY=  -108.2507
 XXXZ=   -48.1374 YYYX=  -214.7626 YYYZ=   -36.9508 ZZZX=   -18.6888
 ZZZY=     3.5601 XXYY=  -788.5484 XXZZ=  -550.3575 YYZZ=  -345.3914
 XXYZ=   -44.1871 YYXZ=     7.0901 ZZXY=   -32.8607
 N-N= 1.187070570197D+03 E-N=-5.050372925670D+03  KE= 1.131225852786D+03
  Exact polarizability: 127.496  -0.685 114.509   0.607   4.579  91.213
 Approx polarizability: 140.431  -0.577 125.766   2.793   9.668 126.658
 Full mass-weighted force constant matrix:
 Low frequencies ---   -1.3296   -0.0015   -0.0009    0.0014    4.2940    8.0475
 Low frequencies ---   14.9253   33.2605   53.3251
 Diagonal vibrational polarizability:
       72.8835830      73.5563887     114.1076473
 Harmonic frequencies (cm**-1), IR intensities (KM/Mole), Raman scattering
 activities (A**4/AMU), depolarization ratios for plane and unpolarized
 incident light, reduced masses (AMU), force constants (mDyne/A),
 and normal coordinates:
                     1                      2                      3
                     A                      A                      A
 Frequencies --    14.7224                33.2464                53.3225
 Red. masses --     6.3586                 6.6113                 7.4115
 Frc consts  --     0.0008                 0.0043                 0.0124
 IR Inten    --     0.2792                 2.2062                 0.4865
 Atom AN      X      Y      Z        X      Y      Z        X      Y      Z
   1   1    -0.01  -0.04  -0.05     0.07   0.05   0.27     0.06   0.17  -0.16
   2  16     0.00   0.04   0.06     0.04   0.09   0.23     0.11   0.12  -0.04
   3   6    -0.02   0.00   0.04     0.10  -0.07  -0.01    -0.05   0.05   0.02
   4   6    -0.02   0.01  -0.01    -0.02  -0.01  -0.14    -0.09   0.06   0.01
   5   6    -0.01  -0.01  -0.01     0.00   0.01  -0.06    -0.10   0.07   0.00
   6   7    -0.03   0.04  -0.04    -0.04  -0.02   0.00    -0.05   0.00   0.03
   7   6    -0.03   0.03  -0.05    -0.01  -0.03   0.09    -0.02  -0.05   0.05
   8   6    -0.02   0.08   0.03    -0.04  -0.07   0.09    -0.05  -0.12  -0.01
   9   7    -0.03  -0.05   0.19     0.01   0.02  -0.01    -0.11  -0.11  -0.03
  10   6     0.02   0.02   0.24     0.01   0.02  -0.06    -0.05  -0.07  -0.14
  11   6     0.03  -0.10  -0.08     0.03   0.00  -0.08     0.10  -0.05   0.02
  12   8     0.07  -0.05  -0.03     0.03  -0.03  -0.23     0.21   0.15   0.26
  13   1     0.08  -0.13  -0.25     0.05  -0.03  -0.23     0.32   0.13   0.31
  14   1    -0.03  -0.04   0.04     0.22  -0.16   0.03    -0.12   0.06   0.00
  15   1    -0.02   0.00   0.06     0.10  -0.11  -0.10    -0.02  -0.01   0.10
  16   1    -0.01   0.00  -0.04     0.02  -0.10  -0.28    -0.11   0.04   0.01
  17   7    -0.03   0.06  -0.02    -0.18   0.11  -0.20    -0.08   0.05   0.01
  18   1    -0.03   0.05  -0.03    -0.20   0.13  -0.32    -0.08   0.05   0.02
  19   1    -0.02   0.09   0.01    -0.25   0.15  -0.09    -0.07   0.05   0.00
  20   8     0.02  -0.07   0.03     0.05   0.03  -0.04    -0.13   0.11  -0.03
  21   1    -0.05   0.08  -0.06    -0.11  -0.01  -0.05    -0.03  -0.01   0.05
  22   1     0.00  -0.04  -0.08     0.03   0.04   0.11    -0.01   0.00   0.07
  23   1    -0.06   0.08  -0.12    -0.02  -0.07   0.14     0.04  -0.08   0.09
  24   8     0.00   0.22  -0.03    -0.08  -0.16   0.16    -0.01  -0.17  -0.03
  25   1     0.00  -0.11   0.18     0.02   0.07  -0.05    -0.11  -0.07  -0.04
  26   1     0.22   0.22   0.32    -0.01   0.05  -0.07    -0.21  -0.12  -0.22
  27   1    -0.15  -0.04   0.44     0.02   0.00  -0.06     0.05   0.01  -0.29
  28   8     0.02  -0.24  -0.35     0.05   0.01   0.02     0.13  -0.21  -0.09
                     4                      5                      6
                     A                      A                      A
 Frequencies --    56.1650                72.0821                78.5622
 Red. masses --    10.6018                 5.8641                 8.5461
 Frc consts  --     0.0197                 0.0180                 0.0311
 IR Inten    --     1.5583                 4.2860                 3.4839
 Atom AN      X      Y      Z        X      Y      Z        X      Y      Z
   1   1    -0.06  -0.15   0.01     0.09   0.17  -0.21     0.25   0.07   0.10
   2  16    -0.06  -0.04   0.09     0.16   0.06  -0.08     0.26   0.01   0.06
   3   6    -0.01  -0.02   0.07    -0.05   0.03   0.08     0.22  -0.08  -0.01
   4   6     0.05  -0.02   0.04    -0.01   0.03   0.07     0.07  -0.06  -0.02
   5   6     0.06  -0.05   0.01    -0.04   0.02  -0.03     0.00   0.09  -0.05
   6   7     0.04   0.00  -0.03    -0.06   0.14  -0.14     0.00   0.03   0.01
   7   6     0.04  -0.02  -0.07     0.00   0.03  -0.19    -0.01   0.06   0.05
   8   6     0.01  -0.04   0.00    -0.08  -0.04   0.01    -0.01   0.03   0.00
   9   7     0.18   0.15  -0.19     0.02  -0.02   0.00    -0.09  -0.01   0.03
  10   6     0.11   0.07  -0.07     0.01  -0.01   0.10    -0.14  -0.06   0.02
  11   6    -0.04   0.10  -0.10     0.00  -0.03   0.02    -0.20  -0.05   0.00
  12   8    -0.10   0.11   0.30    -0.02  -0.08  -0.12    -0.25  -0.08   0.11
  13   1    -0.20   0.13   0.23    -0.02  -0.09  -0.13    -0.30  -0.07   0.08
  14   1    -0.01  -0.06   0.07    -0.22   0.05   0.03     0.29  -0.07   0.01
  15   1    -0.02   0.03   0.07    -0.02   0.00   0.25     0.24  -0.17  -0.07
  16   1     0.06  -0.01   0.04    -0.07   0.03   0.14    -0.01  -0.14  -0.01
  17   7     0.07   0.02   0.03     0.12   0.03   0.10     0.07  -0.10  -0.01
  18   1     0.07   0.03   0.05     0.13  -0.04   0.20     0.07  -0.14   0.00
  19   1     0.08   0.03   0.05     0.23   0.06   0.07     0.10  -0.10  -0.03
  20   8     0.06  -0.09   0.02    -0.04  -0.09   0.00    -0.04   0.24  -0.12
  21   1     0.05   0.03  -0.03    -0.01   0.16  -0.11     0.03  -0.08   0.05
  22   1     0.04  -0.07  -0.09     0.07  -0.13  -0.24    -0.01   0.12   0.07
  23   1     0.04   0.01  -0.11     0.01   0.12  -0.31     0.00   0.02   0.10
  24   8    -0.16  -0.23   0.21    -0.23  -0.12   0.17     0.05   0.03  -0.05
  25   1     0.20   0.13  -0.21     0.08  -0.01  -0.08    -0.10   0.05   0.00
  26   1     0.17   0.02  -0.03     0.12   0.03   0.15    -0.14  -0.09   0.02
  27   1     0.08   0.03  -0.02    -0.07  -0.02   0.19    -0.11  -0.10   0.02
  28   8    -0.12   0.12  -0.45     0.01  -0.01   0.10    -0.23  -0.02  -0.09
                     7                      8                      9
                     A                      A                      A
 Frequencies --   106.3742               142.8924               190.6982
 Red. masses --     7.1209                 5.8699                 4.1001
 Frc consts  --     0.0475                 0.0706                 0.0878
 IR Inten    --     3.9090                 8.5590                 2.8259
 Atom AN      X      Y      Z        X      Y      Z        X      Y      Z
   1   1     0.08   0.26  -0.32     0.02  -0.09   0.03    -0.05   0.01  -0.18
   2  16     0.19   0.12  -0.10    -0.01  -0.04  -0.02     0.00   0.02   0.01
   3   6    -0.11   0.00   0.04     0.08   0.01  -0.03    -0.14  -0.02   0.09
   4   6    -0.09   0.01  -0.02     0.09   0.01  -0.01     0.02  -0.01  -0.04
   5   6     0.00  -0.13   0.10     0.10   0.00   0.06     0.03  -0.08  -0.15
   6   7     0.00  -0.13   0.10    -0.07   0.22  -0.06     0.03  -0.13  -0.10
   7   6    -0.03  -0.08   0.08     0.01   0.14   0.05     0.00   0.00   0.14
   8   6     0.04   0.00  -0.01    -0.05   0.01   0.02     0.02   0.03   0.12
   9   7     0.06   0.03  -0.04    -0.18  -0.01   0.03    -0.07   0.03   0.10
  10   6     0.04   0.00  -0.03    -0.18  -0.02  -0.14    -0.07   0.02  -0.04
  11   6    -0.05   0.03  -0.02    -0.08  -0.01  -0.03    -0.03   0.03  -0.01
  12   8    -0.11  -0.05   0.02     0.00   0.10   0.00    -0.01   0.06  -0.01
  13   1    -0.19  -0.02   0.03     0.09   0.08   0.04     0.03   0.05  -0.01
  14   1    -0.31  -0.02  -0.01     0.14   0.02  -0.02    -0.34  -0.12   0.03
  15   1    -0.08  -0.05   0.25     0.07   0.04  -0.10    -0.13   0.04   0.31
  16   1     0.01   0.03  -0.11     0.11   0.02  -0.03     0.00   0.01   0.01
  17   7    -0.21   0.09  -0.06     0.04   0.02  -0.02     0.19   0.07  -0.01
  18   1    -0.23   0.09  -0.15     0.04  -0.07  -0.04     0.21   0.17   0.10
  19   1    -0.25   0.13   0.02     0.10   0.07   0.00     0.19   0.06  -0.03
  20   8     0.07  -0.25   0.18     0.24  -0.20   0.18    -0.03  -0.10  -0.18
  21   1    -0.09   0.01   0.02    -0.14   0.27  -0.12    -0.05  -0.22  -0.13
  22   1    -0.08  -0.04   0.10     0.09   0.25   0.08     0.11   0.18   0.19
  23   1    -0.04  -0.11   0.11     0.05   0.07   0.13    -0.13  -0.11   0.29
  24   8     0.09   0.06  -0.08     0.00  -0.04  -0.01     0.07   0.03   0.08
  25   1     0.00  -0.05   0.06    -0.22   0.07   0.04    -0.08   0.09   0.09
  26   1     0.04  -0.03  -0.02    -0.37  -0.07  -0.24    -0.20   0.02  -0.11
  27   1     0.05  -0.02  -0.02    -0.03  -0.02  -0.29     0.03   0.00  -0.13
  28   8    -0.08   0.12  -0.04    -0.03  -0.11   0.01    -0.02   0.00   0.00
                    10                     11                     12
                     A                      A                      A
 Frequencies --   220.3590               246.6548               278.7830
 Red. masses --     4.9028                 5.6094                 2.5324
 Frc consts  --     0.1403                 0.2011                 0.1160
 IR Inten    --     1.7586                 6.1721                12.5939
 Atom AN      X      Y      Z        X      Y      Z        X      Y      Z
   1   1    -0.03   0.20   0.08     0.00  -0.06  -0.01     0.01   0.04   0.07
   2  16    -0.05   0.23   0.06     0.00  -0.05   0.01     0.00   0.00   0.00
   3   6     0.02   0.05  -0.18    -0.01  -0.04   0.01     0.03   0.00  -0.03
   4   6    -0.03  -0.02  -0.03    -0.09  -0.01   0.00    -0.02   0.00   0.02
   5   6    -0.01  -0.05  -0.01    -0.12   0.09  -0.07    -0.01  -0.01   0.02
   6   7    -0.03  -0.05   0.00    -0.20   0.25  -0.16     0.05   0.00  -0.02
   7   6    -0.04  -0.04   0.02     0.03   0.00   0.13     0.04  -0.02  -0.12
   8   6    -0.02  -0.02  -0.01     0.03  -0.10   0.09     0.05   0.05   0.09
   9   7     0.00  -0.01  -0.01     0.03  -0.09   0.08     0.01   0.01   0.13
  10   6     0.01   0.00   0.00     0.14   0.01  -0.03     0.00  -0.05  -0.16
  11   6     0.01   0.00   0.00     0.11   0.03  -0.02     0.01  -0.02  -0.03
  12   8     0.00   0.00   0.00    -0.02  -0.12   0.05    -0.01  -0.04   0.02
  13   1    -0.01   0.00   0.00    -0.17  -0.07   0.04    -0.04  -0.01   0.06
  14   1     0.22   0.07  -0.13     0.00  -0.04   0.02     0.09   0.04  -0.01
  15   1     0.02  -0.01  -0.36     0.00  -0.07   0.00     0.03  -0.02  -0.09
  16   1    -0.06   0.11   0.14    -0.18  -0.08   0.04    -0.01   0.00   0.01
  17   7     0.13  -0.28   0.05    -0.03  -0.04   0.01    -0.06  -0.04   0.01
  18   1     0.15  -0.43   0.19    -0.03  -0.26   0.09    -0.07   0.01  -0.03
  19   1     0.29  -0.35  -0.14     0.17   0.05  -0.01    -0.13  -0.07   0.01
  20   8     0.03  -0.10   0.03    -0.07  -0.04   0.00    -0.06  -0.02   0.00
  21   1    -0.03  -0.09   0.01    -0.19   0.20  -0.15     0.11   0.02   0.02
  22   1    -0.04  -0.01   0.03     0.24   0.22   0.19     0.07  -0.29  -0.20
  23   1    -0.04  -0.06   0.04     0.10  -0.12   0.28    -0.03   0.15  -0.34
  24   8    -0.01   0.01  -0.02     0.15  -0.01  -0.05    -0.01   0.12   0.12
  25   1    -0.01  -0.04   0.01     0.00  -0.17   0.16    -0.01   0.10   0.11
  26   1     0.03   0.01   0.01     0.06   0.05  -0.08    -0.35  -0.14  -0.35
  27   1     0.00   0.01   0.01     0.17   0.04  -0.08     0.28  -0.10  -0.42
  28   8     0.00   0.02  -0.01     0.04   0.20  -0.07     0.00   0.02  -0.01
                    13                     14                     15
                     A                      A                      A
 Frequencies --   312.4735               319.9352               336.1662
 Red. masses --     4.6423                 1.9301                 1.8375
 Frc consts  --     0.2671                 0.1164                 0.1223
 IR Inten    --     9.9820                15.4592                24.1046
 Atom AN      X      Y      Z        X      Y      Z        X      Y      Z
   1   1    -0.02  -0.13  -0.16     0.05   0.21   0.32    -0.03   0.13   0.01
   2  16    -0.01   0.00   0.00     0.00   0.00  -0.02     0.00   0.02   0.01
   3   6    -0.01   0.00   0.02     0.08   0.04  -0.03    -0.10  -0.02   0.05
   4   6     0.05   0.01  -0.05     0.02   0.02   0.04     0.03  -0.03  -0.01
   5   6     0.04   0.00   0.02     0.02  -0.03   0.00     0.04   0.00   0.00
   6   7    -0.02  -0.10   0.13     0.03  -0.03  -0.02    -0.05   0.06  -0.02
   7   6    -0.10  -0.08  -0.03     0.01  -0.01  -0.02    -0.03   0.03   0.02
   8   6    -0.12  -0.07  -0.01    -0.03  -0.04   0.00    -0.02   0.01  -0.02
   9   7    -0.12  -0.15   0.10    -0.11  -0.09   0.06     0.03   0.01  -0.02
  10   6     0.03   0.01  -0.07    -0.01   0.04   0.04     0.02  -0.02  -0.04
  11   6     0.09   0.02  -0.02     0.02   0.05  -0.01     0.03  -0.03   0.00
  12   8    -0.01  -0.10   0.04     0.00   0.02   0.00     0.00  -0.06   0.02
  13   1    -0.14  -0.05   0.06    -0.02   0.02  -0.03    -0.04  -0.04   0.03
  14   1    -0.07  -0.04   0.00     0.21   0.13   0.00    -0.26  -0.11   0.00
  15   1    -0.02   0.04   0.07     0.08   0.00  -0.17    -0.10   0.04   0.23
  16   1     0.05   0.01  -0.05     0.04   0.03   0.03     0.06   0.01   0.00
  17   7     0.13   0.12  -0.05     0.02   0.02   0.05     0.02  -0.10   0.00
  18   1     0.14  -0.23   0.08     0.02   0.59  -0.05     0.02   0.54  -0.11
  19   1     0.46   0.31  -0.01    -0.43  -0.20   0.04    -0.49  -0.39  -0.05
  20   8     0.15   0.12   0.04    -0.04  -0.06  -0.02     0.09   0.07   0.00
  21   1    -0.13   0.04   0.03     0.09  -0.14   0.04     0.05  -0.15   0.09
  22   1    -0.19  -0.20  -0.07     0.02  -0.05  -0.03    -0.03   0.10   0.04
  23   1    -0.05  -0.02  -0.12     0.00   0.00  -0.05     0.01  -0.01   0.07
  24   8    -0.14   0.05  -0.04     0.01  -0.06  -0.03    -0.05   0.04  -0.01
  25   1    -0.10  -0.18   0.09    -0.09  -0.12   0.06     0.04   0.02  -0.04
  26   1    -0.11   0.06  -0.16     0.04   0.12   0.06    -0.03  -0.04  -0.06
  27   1     0.09   0.08  -0.17    -0.09   0.10   0.09     0.07  -0.02  -0.08
  28   8     0.04   0.16  -0.05     0.00   0.09  -0.04     0.02  -0.01   0.00
                    16                     17                     18
                     A                      A                      A
 Frequencies --   348.0465               390.8836               420.5774
 Red. masses --     2.8485                 1.1529                 3.0196
 Frc consts  --     0.2033                 0.1038                 0.3147
 IR Inten    --     7.0527                10.1711                26.9066
 Atom AN      X      Y      Z        X      Y      Z        X      Y      Z
   1   1     0.07   0.24   0.42     0.02   0.64   0.68     0.00   0.20   0.21
   2  16     0.00  -0.02  -0.02     0.00  -0.01  -0.01    -0.01   0.01  -0.01
   3   6     0.10   0.04  -0.04    -0.05  -0.02   0.02    -0.01   0.03   0.03
   4   6    -0.03   0.04   0.03    -0.02  -0.01  -0.02     0.07   0.00   0.04
   5   6    -0.05   0.00  -0.03    -0.01   0.01  -0.01     0.09  -0.03   0.01
   6   7    -0.07  -0.04   0.01    -0.01   0.00   0.01     0.14  -0.02  -0.02
   7   6    -0.09  -0.01   0.10     0.01  -0.02  -0.02     0.04   0.18   0.03
   8   6    -0.03   0.02  -0.02     0.01  -0.01   0.01    -0.02   0.08  -0.08
   9   7     0.10   0.07  -0.08     0.00   0.00   0.01    -0.08  -0.01   0.00
  10   6     0.04  -0.04  -0.06     0.00   0.00   0.01    -0.01   0.03  -0.01
  11   6     0.02  -0.06   0.00    -0.01   0.01   0.00     0.08  -0.02   0.00
  12   8     0.00  -0.09   0.03     0.00   0.03  -0.01     0.00  -0.13   0.04
  13   1    -0.05  -0.06   0.05     0.03   0.01  -0.02    -0.15  -0.08   0.03
  14   1     0.31   0.17   0.01    -0.14  -0.05  -0.01    -0.09   0.00   0.01
  15   1     0.11  -0.05  -0.27    -0.04  -0.02   0.12    -0.02   0.08   0.12
  16   1    -0.07   0.00   0.04    -0.03  -0.02  -0.01     0.14   0.04   0.00
  17   7     0.08   0.13   0.04     0.01   0.00  -0.02    -0.12  -0.05   0.01
  18   1     0.10   0.29   0.11     0.01  -0.18   0.02    -0.16  -0.48  -0.11
  19   1     0.01   0.10   0.05     0.13   0.05  -0.03     0.09   0.09   0.05
  20   8    -0.03  -0.07   0.00     0.04   0.03   0.01    -0.07  -0.05  -0.06
  21   1    -0.15  -0.05  -0.04    -0.04   0.07  -0.02     0.08   0.04  -0.06
  22   1    -0.10   0.21   0.17     0.01  -0.08  -0.04    -0.03   0.49   0.13
  23   1    -0.07  -0.14   0.28     0.00   0.02  -0.07     0.03  -0.02   0.30
  24   8    -0.09   0.11   0.00     0.03  -0.01   0.00    -0.09  -0.02   0.01
  25   1     0.09   0.05  -0.06     0.01   0.01   0.00    -0.03   0.04  -0.09
  26   1    -0.02  -0.11  -0.08     0.00   0.00   0.01    -0.03   0.08  -0.03
  27   1     0.11  -0.07  -0.11     0.00  -0.01   0.02    -0.03   0.09  -0.03
  28   8     0.03  -0.07   0.01    -0.01  -0.01  -0.01     0.06   0.03  -0.02
                    19                     20                     21
                     A                      A                      A
 Frequencies --   500.5862               521.0703               539.3905
 Red. masses --     4.4360                 1.6664                 4.2699
 Frc consts  --     0.6549                 0.2666                 0.7319
 IR Inten    --    67.7792                18.7368                 7.3029
 Atom AN      X      Y      Z        X      Y      Z        X      Y      Z
   1   1    -0.01   0.01  -0.04     0.00   0.00  -0.01     0.05  -0.08   0.07
   2  16     0.00   0.00   0.01     0.00   0.00   0.00     0.03  -0.06   0.04
   3   6    -0.04  -0.09  -0.07     0.00   0.00   0.00    -0.02   0.03  -0.01
   4   6    -0.07  -0.04  -0.08     0.01  -0.01   0.01    -0.08   0.14  -0.17
   5   6    -0.07   0.01   0.05     0.01  -0.01   0.00    -0.09   0.15   0.03
   6   7    -0.01   0.00   0.08    -0.01  -0.01  -0.01     0.12   0.01   0.10
   7   6    -0.06   0.10  -0.06    -0.01   0.00   0.00     0.10   0.05   0.02
   8   6     0.02   0.14   0.02    -0.01   0.00  -0.02     0.02  -0.01  -0.07
   9   7    -0.08   0.15  -0.03     0.02   0.00   0.00     0.01  -0.08   0.01
  10   6    -0.06   0.12   0.01     0.01   0.00   0.05     0.02  -0.06   0.01
  11   6     0.09   0.01   0.04     0.01   0.07   0.20    -0.02   0.00   0.02
  12   8    -0.03  -0.18   0.06     0.00   0.02  -0.03     0.02   0.05  -0.02
  13   1    -0.33  -0.13  -0.09    -0.02  -0.22  -0.69     0.13  -0.01  -0.08
  14   1    -0.02  -0.11  -0.06     0.02   0.02   0.01    -0.20  -0.16  -0.04
  15   1    -0.04  -0.11  -0.07     0.00   0.00  -0.01    -0.01   0.07   0.22
  16   1    -0.08  -0.05  -0.07     0.01   0.00   0.01    -0.16   0.08  -0.14
  17   7     0.12   0.04  -0.08    -0.01   0.00   0.01     0.12  -0.08  -0.15
  18   1     0.16   0.31   0.09    -0.02  -0.02   0.00     0.16   0.17   0.04
  19   1     0.05  -0.01  -0.10    -0.01   0.02   0.03     0.02  -0.32  -0.40
  20   8    -0.07  -0.02   0.07     0.01   0.01  -0.01    -0.13  -0.10   0.11
  21   1     0.00   0.01   0.08    -0.01   0.00  -0.01     0.16   0.04   0.12
  22   1    -0.11  -0.19  -0.14    -0.02   0.04   0.01    -0.01   0.22   0.08
  23   1    -0.18   0.29  -0.30     0.00  -0.02   0.03     0.21  -0.07   0.17
  24   8     0.15  -0.14   0.01     0.00  -0.02  -0.02    -0.10   0.05   0.02
  25   1    -0.10   0.18  -0.03     0.02  -0.07   0.03    -0.03  -0.13   0.08
  26   1    -0.09   0.13  -0.01    -0.32  -0.33  -0.09    -0.02  -0.11  -0.01
  27   1    -0.07   0.22  -0.05     0.28   0.14  -0.31     0.05  -0.05  -0.03
  28   8     0.11  -0.05  -0.01    -0.02  -0.01  -0.06    -0.04   0.04  -0.02
                    22                     23                     24
                     A                      A                      A
 Frequencies --   551.9652               587.4864               641.4365
 Red. masses --     4.7591                 3.3335                 3.3092
 Frc consts  --     0.8543                 0.6779                 0.8022
 IR Inten    --    24.2461                10.9189                 4.5099
 Atom AN      X      Y      Z        X      Y      Z        X      Y      Z
   1   1     0.10  -0.23   0.09     0.05  -0.05   0.15    -0.03   0.06  -0.04
   2  16     0.03  -0.08   0.02    -0.02   0.01  -0.01     0.00   0.01   0.00
   3   6     0.06   0.22   0.12     0.09   0.11   0.07    -0.04  -0.07  -0.04
   4   6    -0.11   0.24  -0.02     0.23   0.04  -0.03    -0.03  -0.04   0.01
   5   6    -0.04   0.11  -0.17     0.07  -0.03   0.07     0.00   0.03   0.01
   6   7     0.01  -0.11  -0.03    -0.09   0.08   0.04     0.09   0.03  -0.04
   7   6    -0.04  -0.07  -0.01    -0.05  -0.09   0.04     0.19  -0.12   0.04
   8   6    -0.02   0.01   0.03    -0.07  -0.07   0.09    -0.02  -0.12   0.06
   9   7    -0.04   0.07  -0.04     0.01   0.04  -0.05    -0.06   0.01  -0.10
  10   6    -0.04   0.08  -0.01     0.00   0.04  -0.01    -0.03   0.12  -0.05
  11   6     0.03   0.02   0.01     0.00   0.02   0.01     0.02   0.09  -0.01
  12   8    -0.03  -0.06   0.02    -0.03  -0.01   0.01    -0.10  -0.01   0.04
  13   1    -0.19  -0.03  -0.03    -0.09  -0.02  -0.07    -0.41  -0.04  -0.34
  14   1     0.00   0.16   0.11    -0.20  -0.04   0.01     0.01  -0.05  -0.03
  15   1     0.08   0.17   0.18     0.07   0.29   0.38    -0.04  -0.09  -0.09
  16   1    -0.25   0.17   0.07     0.34   0.08  -0.12    -0.04  -0.05   0.02
  17   7    -0.09  -0.11   0.08     0.03  -0.04  -0.10     0.00   0.02   0.01
  18   1    -0.10  -0.23   0.05    -0.01  -0.22  -0.29     0.00   0.05   0.06
  19   1    -0.09  -0.33  -0.21     0.00  -0.05  -0.10     0.02   0.06   0.06
  20   8     0.18  -0.04  -0.04    -0.16  -0.06  -0.03     0.01   0.02   0.02
  21   1    -0.11  -0.04  -0.11    -0.04  -0.10   0.11     0.19   0.04   0.02
  22   1    -0.01  -0.22  -0.06     0.01  -0.36  -0.04     0.33  -0.08   0.05
  23   1    -0.14   0.03  -0.14    -0.02   0.08  -0.19     0.27  -0.16   0.07
  24   8     0.04  -0.02  -0.01     0.02   0.03  -0.03    -0.07   0.12   0.01
  25   1    -0.09   0.03   0.03    -0.02  -0.03   0.01    -0.23  -0.14   0.16
  26   1    -0.01   0.09   0.00     0.03   0.02   0.01     0.11   0.16   0.03
  27   1    -0.07   0.12   0.00    -0.01   0.06   0.00    -0.17   0.23   0.04
  28   8     0.05  -0.04   0.01     0.02  -0.04   0.01     0.09  -0.10   0.03
                    25                     26                     27
                     A                      A                      A
 Frequencies --   682.5417               692.8382               696.1530
 Red. masses --     2.8458                 1.5441                 1.6387
 Frc consts  --     0.7811                 0.4367                 0.4679
 IR Inten    --    53.9602                65.8066               158.1358
 Atom AN      X      Y      Z        X      Y      Z        X      Y      Z
   1   1     0.01  -0.03   0.01     0.01  -0.06   0.02    -0.02   0.06   0.00
   2  16     0.00   0.00   0.00    -0.03   0.04  -0.03     0.01  -0.02   0.01
   3   6     0.01   0.01   0.00     0.08  -0.05   0.06    -0.04   0.01  -0.03
   4   6     0.00   0.00   0.00     0.03  -0.05   0.01    -0.01   0.01   0.00
   5   6     0.00   0.00   0.01    -0.03   0.06  -0.03     0.02  -0.01   0.01
   6   7     0.00  -0.01   0.01     0.04  -0.04   0.03     0.00   0.03  -0.03
   7   6    -0.03   0.03  -0.03     0.02   0.00   0.00     0.03  -0.02   0.02
   8   6    -0.01   0.01  -0.05    -0.01  -0.02   0.02    -0.02  -0.02   0.02
   9   7     0.05  -0.07   0.12     0.00   0.03  -0.04    -0.01   0.04  -0.06
  10   6     0.15   0.09   0.00    -0.03  -0.01   0.02    -0.05   0.00   0.06
  11   6    -0.02   0.12   0.02     0.01   0.00   0.04     0.02   0.01   0.12
  12   8    -0.16   0.05  -0.07     0.02  -0.02  -0.03     0.03  -0.05  -0.08
  13   1    -0.30   0.35   0.61     0.08   0.06   0.26     0.16   0.20   0.72
  14   1    -0.01   0.00   0.00    -0.06  -0.08   0.02     0.03   0.02  -0.01
  15   1     0.01   0.01   0.03     0.08  -0.02   0.18    -0.04  -0.01  -0.09
  16   1     0.00   0.00   0.00    -0.07  -0.17   0.01     0.03   0.06   0.00
  17   7     0.01  -0.01  -0.01     0.01  -0.03   0.00    -0.01   0.02   0.00
  18   1     0.01   0.03  -0.01     0.01   0.18  -0.04    -0.01  -0.09   0.02
  19   1    -0.02  -0.02  -0.01    -0.10  -0.03   0.07     0.05   0.03  -0.02
  20   8    -0.01   0.00   0.00     0.00   0.00   0.00     0.01   0.00   0.00
  21   1    -0.09   0.12  -0.07    -0.42   0.58  -0.38     0.25  -0.29   0.19
  22   1    -0.08   0.15   0.01     0.07  -0.01  -0.01     0.07  -0.08   0.00
  23   1     0.00  -0.04   0.07     0.02   0.00   0.00     0.02   0.01  -0.03
  24   8    -0.01  -0.05  -0.03     0.00   0.01   0.01    -0.01   0.02   0.00
  25   1     0.20  -0.06  -0.06    -0.14  -0.14   0.19    -0.15  -0.12   0.16
  26   1    -0.09  -0.03  -0.12    -0.05  -0.07   0.02    -0.15  -0.17   0.02
  27   1     0.32   0.09  -0.16    -0.01   0.04  -0.03     0.03   0.12  -0.11
  28   8     0.06  -0.15   0.01    -0.01   0.02  -0.03    -0.02   0.02  -0.06
                    28                     29                     30
                     A                      A                      A
 Frequencies --   718.0010               737.2455               805.7876
 Red. masses --     2.1355                 1.2382                 4.1636
 Frc consts  --     0.6486                 0.3965                 1.5928
 IR Inten    --    36.1547                61.9775                 0.9884
 Atom AN      X      Y      Z        X      Y      Z        X      Y      Z
   1   1     0.05  -0.13   0.10     0.00  -0.02  -0.01     0.08  -0.13   0.12
   2  16    -0.06   0.06  -0.06    -0.01   0.01  -0.01     0.01  -0.01   0.00
   3   6     0.15  -0.07   0.14     0.02  -0.01   0.02     0.02   0.12   0.05
   4   6    -0.02  -0.05   0.00    -0.01   0.00   0.00    -0.01   0.01  -0.01
   5   6    -0.07   0.06  -0.04    -0.01   0.01   0.00    -0.03  -0.19   0.12
   6   7    -0.01   0.00  -0.02     0.00   0.01   0.00    -0.12  -0.02  -0.11
   7   6     0.00   0.00   0.00     0.04  -0.07   0.01     0.01  -0.14  -0.07
   8   6     0.04   0.04  -0.04     0.01  -0.02  -0.01     0.24   0.10  -0.15
   9   7     0.00  -0.01   0.01    -0.04  -0.01   0.03    -0.06  -0.04  -0.02
  10   6     0.00   0.00   0.00    -0.05   0.02   0.02    -0.09  -0.01   0.00
  11   6     0.00   0.01  -0.01     0.01   0.01   0.04     0.03   0.04   0.03
  12   8    -0.01   0.01   0.00     0.01  -0.02  -0.01    -0.02   0.00  -0.01
  13   1    -0.03   0.01   0.00     0.02   0.02   0.11    -0.11   0.05   0.04
  14   1    -0.03  -0.09   0.09     0.00  -0.02   0.02     0.02   0.15   0.05
  15   1     0.17  -0.09   0.27     0.03  -0.02   0.04     0.04   0.08   0.05
  16   1    -0.15  -0.26  -0.05    -0.04  -0.04  -0.01     0.13   0.10  -0.08
  17   7     0.00   0.01  -0.02     0.00  -0.01  -0.01     0.03  -0.02  -0.07
  18   1     0.00  -0.08   0.02     0.01   0.03   0.01     0.04   0.03  -0.03
  19   1     0.07   0.07   0.01     0.00  -0.01  -0.01     0.02  -0.07  -0.12
  20   8     0.04  -0.02   0.04     0.00  -0.01   0.02    -0.02   0.10   0.05
  21   1     0.43  -0.55   0.35     0.00   0.06  -0.02    -0.14   0.22  -0.17
  22   1    -0.07   0.04   0.02     0.06  -0.03   0.02    -0.06   0.30   0.07
  23   1    -0.02  -0.02   0.03     0.09  -0.08   0.02    -0.04  -0.39   0.27
  24   8    -0.01  -0.01   0.02     0.00   0.02  -0.01     0.01   0.01   0.13
  25   1    -0.07  -0.08   0.12     0.35   0.58  -0.68    -0.25  -0.04   0.21
  26   1     0.00   0.00   0.00    -0.06   0.01   0.01     0.03  -0.01   0.06
  27   1     0.00   0.00   0.00    -0.05   0.08  -0.02    -0.19   0.08   0.05
  28   8     0.01  -0.01   0.00     0.00   0.02  -0.02     0.04   0.01  -0.02
                    31                     32                     33
                     A                      A                      A
 Frequencies --   828.0620               842.4555               889.8557
 Red. masses --     1.6396                 2.9119                 2.9535
 Frc consts  --     0.6624                 1.2176                 1.3779
 IR Inten    --     2.7798                 7.1012                11.9228
 Atom AN      X      Y      Z        X      Y      Z        X      Y      Z
   1   1    -0.23   0.41  -0.33    -0.24   0.44  -0.36    -0.15   0.28  -0.21
   2  16    -0.01   0.00  -0.02     0.00  -0.01   0.01     0.01  -0.02   0.02
   3   6    -0.01   0.01   0.19    -0.06  -0.03   0.00    -0.02   0.05  -0.05
   4   6    -0.04   0.00  -0.01     0.13  -0.03   0.03     0.15  -0.06   0.05
   5   6     0.02  -0.04   0.03    -0.02   0.17  -0.11    -0.16   0.11  -0.03
   6   7     0.02   0.00  -0.01    -0.07   0.03   0.11     0.05  -0.07  -0.10
   7   6     0.01   0.03  -0.01    -0.01  -0.05   0.05    -0.02  -0.10  -0.08
   8   6    -0.04  -0.02   0.03     0.16   0.07  -0.12    -0.05   0.01   0.00
   9   7     0.01   0.01   0.00    -0.04  -0.07  -0.02     0.02   0.09   0.07
  10   6     0.01   0.01   0.00    -0.02  -0.03  -0.01     0.00   0.08   0.02
  11   6    -0.01  -0.01  -0.01     0.02   0.04   0.03    -0.02  -0.05  -0.04
  12   8     0.00   0.00   0.00    -0.02   0.01  -0.01     0.04  -0.03   0.02
  13   1     0.02  -0.01  -0.01    -0.10   0.05   0.02     0.11  -0.06  -0.01
  14   1     0.50   0.10   0.33     0.18  -0.03   0.06    -0.05   0.04  -0.06
  15   1    -0.06   0.00  -0.40    -0.13   0.16  -0.27    -0.10   0.32  -0.03
  16   1     0.00  -0.06  -0.12     0.02  -0.09   0.08     0.07  -0.10   0.11
  17   7     0.02  -0.03  -0.08    -0.01   0.01   0.03     0.02   0.00  -0.04
  18   1     0.04  -0.03  -0.01    -0.05  -0.10  -0.22    -0.03  -0.05  -0.31
  19   1     0.03  -0.11  -0.19    -0.10   0.03   0.12    -0.09   0.09   0.16
  20   8    -0.01   0.02   0.00     0.01  -0.09  -0.05     0.00   0.02   0.12
  21   1     0.00   0.05  -0.03    -0.17  -0.07   0.08     0.24   0.00  -0.01
  22   1     0.06   0.02  -0.01    -0.22  -0.22   0.01     0.06   0.27   0.04
  23   1     0.00   0.02   0.00     0.08   0.07  -0.12    -0.10  -0.33   0.24
  24   8     0.00   0.00  -0.02    -0.02   0.01   0.08     0.00  -0.04  -0.04
  25   1     0.01  -0.02   0.01    -0.09  -0.01   0.01     0.02   0.03   0.10
  26   1    -0.01   0.01  -0.01     0.08  -0.05   0.05    -0.18   0.13  -0.08
  27   1     0.03   0.00  -0.01    -0.12   0.05   0.04     0.13   0.00  -0.06
  28   8    -0.01   0.00   0.00     0.03   0.00  -0.01    -0.04   0.00   0.02
                    34                     35                     36
                     A                      A                      A
 Frequencies --   923.7139               945.1074               956.7986
 Red. masses --     3.5965                 2.8007                 2.2159
 Frc consts  --     1.8080                 1.4740                 1.1952
 IR Inten    --    19.2236                67.4441                61.9361
 Atom AN      X      Y      Z        X      Y      Z        X      Y      Z
   1   1     0.02  -0.04   0.03     0.04  -0.05   0.05    -0.07   0.10  -0.11
   2  16     0.00   0.00  -0.01     0.01  -0.01   0.01    -0.01   0.00   0.00
   3   6     0.01  -0.03   0.01    -0.02   0.13  -0.01     0.02  -0.10  -0.02
   4   6    -0.03   0.02  -0.02     0.00  -0.10   0.06     0.05   0.08  -0.05
   5   6     0.04  -0.02   0.01    -0.06   0.01  -0.02    -0.04   0.00   0.02
   6   7    -0.03   0.03   0.03     0.02  -0.04  -0.02     0.01  -0.04  -0.05
   7   6     0.05  -0.06   0.04    -0.05   0.13  -0.01    -0.08   0.05  -0.06
   8   6     0.05   0.06  -0.08     0.01  -0.06   0.09     0.00  -0.05   0.08
   9   7    -0.06   0.00   0.03    -0.05  -0.10  -0.08    -0.03  -0.05  -0.05
  10   6     0.18   0.25  -0.11     0.09  -0.01  -0.11     0.04  -0.02  -0.07
  11   6    -0.09  -0.10   0.06    -0.01   0.02   0.11     0.00   0.02   0.07
  12   8     0.09  -0.07   0.01    -0.01   0.00  -0.02    -0.01   0.00  -0.01
  13   1     0.52  -0.22   0.02     0.10  -0.02   0.01     0.04  -0.01   0.00
  14   1     0.01  -0.04   0.01    -0.05   0.26  -0.03     0.00  -0.23  -0.01
  15   1     0.02  -0.08   0.01    -0.03   0.19   0.02     0.01  -0.06   0.01
  16   1     0.00   0.04  -0.03    -0.07  -0.13   0.11     0.08   0.08  -0.09
  17   7     0.00   0.01   0.02    -0.01  -0.07  -0.11     0.03   0.09   0.11
  18   1     0.00  -0.02   0.06     0.05   0.28   0.08    -0.07  -0.39  -0.28
  19   1     0.00  -0.05  -0.05     0.17   0.35   0.28    -0.27  -0.40  -0.30
  20   8     0.00  -0.01  -0.04     0.02   0.01   0.03    -0.01   0.02   0.05
  21   1    -0.09   0.04  -0.01     0.05  -0.11   0.01     0.05   0.03  -0.04
  22   1    -0.01  -0.13   0.01     0.00   0.04  -0.04    -0.03   0.20  -0.02
  23   1     0.11  -0.01  -0.04    -0.18   0.18  -0.06    -0.22  -0.04   0.07
  24   8    -0.02  -0.02   0.02     0.04   0.06   0.06     0.05   0.04   0.05
  25   1    -0.08  -0.09   0.08    -0.01   0.07  -0.21    -0.02   0.06  -0.11
  26   1     0.12   0.38  -0.16     0.40  -0.01   0.07     0.27  -0.01   0.06
  27   1     0.06   0.42  -0.09    -0.20   0.17   0.08    -0.16   0.09   0.07
  28   8    -0.18  -0.05   0.03    -0.03  -0.02  -0.02    -0.01  -0.01  -0.01
                    37                     38                     39
                     A                      A                      A
 Frequencies --  1025.0233              1064.3119              1083.5281
 Red. masses --     1.4550                 2.3177                 2.2090
 Frc consts  --     0.9007                 1.5468                 1.5280
 IR Inten    --    72.7205                 3.0249                32.8968
 Atom AN      X      Y      Z        X      Y      Z        X      Y      Z
   1   1    -0.23   0.40  -0.30    -0.11   0.19  -0.16     0.20  -0.33   0.29
   2  16    -0.01  -0.01   0.01     0.00  -0.01   0.01     0.00   0.02  -0.02
   3   6     0.09  -0.05  -0.03     0.05   0.02  -0.03    -0.10  -0.10   0.05
   4   6     0.00   0.10  -0.03    -0.01   0.00  -0.01     0.04   0.10   0.07
   5   6     0.05   0.00   0.03    -0.05  -0.06   0.02     0.04   0.09   0.00
   6   7     0.01   0.01  -0.03     0.04  -0.03  -0.13     0.08   0.03  -0.07
   7   6    -0.05  -0.03  -0.02     0.05   0.01   0.20    -0.09  -0.10   0.05
   8   6     0.00   0.00   0.01    -0.02   0.12  -0.06    -0.02   0.07  -0.01
   9   7     0.00   0.00   0.00    -0.04  -0.02  -0.01    -0.01   0.01   0.02
  10   6     0.00   0.00  -0.01     0.06  -0.05   0.01     0.02  -0.04  -0.05
  11   6     0.00   0.01   0.01     0.00   0.00  -0.01     0.01   0.01   0.04
  12   8     0.00   0.00   0.00    -0.01   0.02   0.00    -0.01   0.00  -0.01
  13   1    -0.01   0.00   0.00    -0.01   0.01  -0.01     0.00   0.00   0.00
  14   1    -0.06  -0.35  -0.05    -0.10  -0.04  -0.07     0.23  -0.11   0.14
  15   1     0.05   0.16   0.16     0.02   0.16   0.11    -0.04  -0.37  -0.22
  16   1     0.04   0.14  -0.04    -0.02  -0.06  -0.04     0.16   0.36   0.18
  17   7    -0.06  -0.05   0.02     0.01   0.02   0.02    -0.01  -0.05  -0.07
  18   1     0.04   0.32   0.43    -0.01  -0.05  -0.04     0.01   0.10  -0.06
  19   1     0.23   0.24   0.18    -0.05  -0.07  -0.06     0.08   0.14   0.11
  20   8    -0.01   0.00   0.00    -0.01   0.04   0.06    -0.01   0.00   0.03
  21   1     0.01  -0.03  -0.02    -0.01   0.02  -0.17     0.10   0.08  -0.08
  22   1    -0.07   0.07   0.01     0.33  -0.53   0.02    -0.01  -0.11   0.04
  23   1    -0.08  -0.09   0.05    -0.29   0.36  -0.25    -0.27  -0.06   0.01
  24   8     0.01   0.00   0.01    -0.05  -0.02  -0.03    -0.01  -0.02  -0.01
  25   1    -0.02   0.00   0.02     0.03  -0.06  -0.08    -0.01   0.00   0.03
  26   1     0.03   0.01   0.01     0.05  -0.12   0.01     0.16   0.00   0.03
  27   1    -0.03   0.00   0.02     0.10  -0.09   0.00    -0.08  -0.08   0.08
  28   8     0.00   0.00   0.00     0.01   0.00   0.00     0.00   0.00  -0.01
                    40                     41                     42
                     A                      A                      A
 Frequencies --  1110.9908              1154.4329              1180.1808
 Red. masses --     2.7387                 2.1000                 1.8005
 Frc consts  --     1.9916                 1.6490                 1.4775
 IR Inten    --     6.9663                 4.1911                30.2115
 Atom AN      X      Y      Z        X      Y      Z        X      Y      Z
   1   1     0.04  -0.07   0.06    -0.03   0.06  -0.04    -0.17   0.25  -0.24
   2  16     0.00   0.00  -0.01    -0.01   0.00  -0.01    -0.01  -0.01   0.02
   3   6    -0.02  -0.04   0.01     0.03  -0.05   0.00     0.07  -0.02  -0.04
   4   6     0.03   0.06   0.02     0.03   0.11   0.05    -0.10   0.03   0.14
   5   6    -0.02   0.02   0.00    -0.10  -0.08  -0.03     0.05  -0.02   0.02
   6   7    -0.01  -0.03  -0.03    -0.11  -0.08   0.03     0.04   0.06   0.01
   7   6    -0.03   0.05   0.00     0.13   0.10  -0.01    -0.06  -0.04   0.00
   8   6     0.07  -0.07   0.01     0.00  -0.02  -0.01     0.00   0.00   0.00
   9   7    -0.06  -0.09  -0.14     0.03   0.01   0.03     0.00  -0.01  -0.01
  10   6     0.04   0.09   0.19    -0.03   0.00  -0.03     0.00   0.00   0.01
  11   6    -0.02  -0.07  -0.17     0.00   0.01   0.03     0.00   0.00  -0.01
  12   8    -0.01   0.01   0.02     0.01  -0.01   0.00     0.00   0.00   0.00
  13   1     0.04  -0.01   0.00    -0.02   0.00   0.00    -0.01   0.00   0.00
  14   1     0.08  -0.11   0.05     0.06  -0.28   0.04    -0.24   0.26  -0.16
  15   1    -0.01  -0.11  -0.05     0.06  -0.14   0.04     0.15  -0.22   0.21
  16   1     0.09   0.20   0.10     0.06   0.49   0.39    -0.33   0.01   0.40
  17   7     0.00  -0.02  -0.02     0.02  -0.03  -0.05     0.05   0.01  -0.10
  18   1     0.00   0.04  -0.05    -0.01   0.01  -0.33    -0.01  -0.14  -0.38
  19   1     0.03   0.08   0.07    -0.03   0.17   0.24    -0.12  -0.06  -0.07
  20   8     0.00   0.01   0.02     0.01   0.02   0.01     0.01  -0.01  -0.04
  21   1    -0.04  -0.06  -0.04    -0.15  -0.16   0.03     0.13   0.14   0.04
  22   1    -0.06   0.00  -0.01     0.14   0.00  -0.04    -0.12   0.01   0.02
  23   1    -0.18   0.09  -0.04     0.29   0.13  -0.06    -0.05  -0.05   0.03
  24   8     0.03   0.05   0.07    -0.02   0.00  -0.03     0.01   0.00   0.01
[...]
 261,0.00167837,0.00046106,-0.00085905,-0.00345136,0.00360410,-0.186746
 59,0.08705414,0.36496664,-0.00004994,0.00000968,0.00001095,0.00001726,
 -0.00005662,-0.00003624,0.00013797,0.00009175,-0.00004768,-0.00047446,
 0.00081427,0.00014437,0.00136006,0.00241382,0.00556225,-0.00978660,-0.
 01448979,0.03552608,-0.05260024,0.01013591,-0.02106141,0.00405826,0.00
 522841,-0.03147130,-0.00050660,-0.00002665,0.00269837,-0.00010837,-0.0
 0027175,0.00045081,0.00004929,-0.00033059,0.00011852,-0.00000861,0.000
 07460,-0.00001141,0.00000295,-0.00002397,-0.00000037,0.00000271,-0.000
 04659,-0.00002658,0.00000842,0.00001353,0.00001756,-0.00026520,-0.0001
 6197,0.00000211,-0.00073457,-0.00015659,-0.00016857,-0.00008081,-0.000
 20485,-0.00010673,0.00010441,0.00014939,-0.00002132,0.00123211,0.00019
 913,-0.00238609,-0.00107406,-0.00469815,0.00040210,0.06643215,-0.00000
 326,-0.00000456,0.00001693,0.00000779,-0.00003569,-0.00001150,0.000162
 68,0.00003872,0.00002987,-0.00039344,0.00058374,-0.00007743,-0.0006127
 2,0.00261426,0.00557503,-0.00825855,-0.00719316,0.01852348,0.00554353,
 -0.08093598,0.07160042,-0.00006474,-0.00307866,0.02122778,0.00015760,0
 .00046120,-0.00187509,0.00027635,0.00009655,-0.00045587,-0.00013953,-0
 .00000206,0.00003603,-0.00001947,0.00010572,-0.00003844,-0.00000453,0.
 00000662,0.00000145,-0.00003420,-0.00003827,-0.00004140,0.00001605,0.0
 0003114,-0.00000596,-0.00014332,-0.00011441,-0.00001075,-0.00019841,-0
 .00007278,-0.00015676,-0.00001828,-0.00005692,-0.00008989,0.00004006,0
 .00004398,-0.00001566,0.00203249,0.00031282,-0.00278080,-0.00038698,-0
 .00261543,0.00006498,-0.00112754,0.07872663,0.00002604,-0.00001912,0.0
 0000235,-0.00000107,0.00001513,0.00002500,0.00003968,-0.00004009,0.000
 06534,-0.00024726,0.00041545,-0.00026603,-0.00018145,-0.00336493,-0.00
 203474,0.00941275,0.00388723,-0.00371968,-0.01297925,0.07648542,-0.310
 04100,-0.00141926,-0.00104194,-0.00544838,0.00068001,-0.00087939,0.000
 90498,-0.00052457,0.00015761,0.00024801,0.00023257,0.00001772,-0.00002
 305,-0.00004837,-0.00006231,0.00002669,0.00001577,-0.00001162,-0.00000
 503,-0.00002124,0.00002484,0.00000005,0.00000137,0.00002583,-0.0000000
 3,-0.00006169,-0.00000944,0.00002335,0.00042661,0.00001918,-0.00004393
 ,0.00004224,0.00013052,0.00001673,-0.00004929,-0.00007447,0.00000874,-
 0.00146180,0.00015447,0.00138943,-0.00113998,0.00188381,0.00022033,0.0
 0969013,-0.08573151,0.33322574,-0.00006990,0.00001426,0.00000900,0.000
 03521,-0.00004198,-0.00001517,-0.00040986,0.00010238,0.00009391,-0.000
 05352,-0.00017544,-0.00147191,-0.00345085,-0.00177694,0.00530588,-0.00
 851830,-0.03233206,-0.02274147,-0.05257314,-0.00203232,-0.00035150,0.0
 0188135,0.02636080,0.02141006,-0.00587889,0.00304692,-0.00247997,0.000
 41556,0.00066674,0.00103086,-0.00049331,-0.00042260,0.00025786,0.00000
 743,0.00032053,-0.00013253,-0.00001681,0.00000726,-0.00000867,0.000034
 39,0.00002412,0.00002188,-0.00001470,-0.00016324,-0.00000138,-0.000271
 11,-0.00014934,0.00002777,0.00012574,0.00021620,0.00019479,-0.00002351
 ,-0.00009782,0.00000926,0.00000483,0.00002460,-0.00000954,0.00109823,-
 0.00001593,-0.00085711,0.00123968,0.00029121,-0.00044628,-0.00014003,-
 0.00060122,-0.00083884,0.06582377,0.00000386,0.00000656,0.00000792,0.0
 0002332,-0.00001304,-0.00000351,-0.00024071,0.00006130,0.00007586,-0.0
 0004793,-0.00000441,-0.00094812,-0.00164473,-0.00026346,0.00450778,-0.
 00530481,-0.01641132,-0.01145573,-0.00435468,-0.24187965,-0.13677563,-
 0.00106403,-0.01851234,-0.01660847,0.00434451,-0.00136806,0.00166746,-
 0.00013541,-0.00010641,-0.00083655,0.00008265,0.00019719,-0.00012310,0
 .00005349,-0.00015931,0.00007231,-0.00000329,0.00000110,-0.00000679,0.
 00002247,0.00000971,0.00000843,-0.00000434,-0.00008047,-0.00000780,-0.
 00019433,-0.00010530,0.00003497,0.00012573,0.00010186,0.00016528,-0.00
 000598,-0.00005173,0.00000444,-0.00002522,-0.00003460,-0.00003602,0.00
 091388,0.00071642,-0.00062310,-0.00032094,0.00097141,-0.00025885,0.000
 59610,0.01281698,0.00602031,0.00952013,0.26054677,0.00000357,0.0000099
 3,-0.00000825,-0.00001454,0.00001370,-0.00000570,0.00003584,-0.0000299
 7,-0.00004673,0.00021444,-0.00013459,0.00061725,0.00225287,0.00010670,
 -0.00299970,0.00281482,0.01278376,0.00825513,-0.00283800,-0.14606305,-
 0.16526439,-0.00171217,0.00664711,0.00259867,-0.00081109,-0.00017124,0
 .00045879,-0.00047036,0.00013093,0.00054174,0.00005956,0.00003414,-0.0
 0000123,0.00002772,-0.00008507,0.00001470,-0.00000021,0.00000343,-0.00
 000274,0.00001888,0.00001379,0.00001766,-0.00000869,0.00002357,0.00001
 710,0.00012468,0.00004729,-0.00002316,-0.00019499,-0.00007330,-0.00003
 627,-0.00001054,-0.00003161,-0.00000011,0.00000865,0.00001972,0.000004
 47,-0.00178855,-0.00097438,0.00123730,-0.00045968,-0.00000806,0.000879
 37,0.00005864,-0.02643711,-0.01484536,0.00185107,0.15281399,0.16791802
 ,-0.00012498,0.00014884,-0.00001076,0.00011777,-0.00016725,-0.00008152
 ,-0.00059454,0.00037070,0.00014162,0.00060666,-0.00011827,-0.00044838,
 0.00112783,0.00321153,0.00450885,-0.00486218,-0.00201182,-0.00190890,-
 0.02439732,-0.00219550,-0.04340846,-0.39944106,-0.08293608,-0.31075419
 ,0.02323758,-0.02478507,-0.02906338,-0.00902802,0.00409546,-0.00028349
 ,0.00039895,-0.00118263,0.00185556,0.00080317,-0.00160129,0.00056509,0
 .00008187,-0.00021561,-0.00012619,0.00018621,0.00005906,0.00009698,-0.
 00007107,-0.00025057,0.00002797,-0.00017150,-0.00015252,0.00005577,-0.
 00067753,-0.00033161,0.00037796,-0.00006944,-0.00021415,-0.00000849,0.
 00000745,0.00011296,-0.00010874,-0.00038390,-0.00129561,-0.00219390,-0
 .00009572,-0.00010407,-0.00104700,-0.00751315,0.00361377,-0.00186005,0
 .00187011,-0.00256085,0.00094240,0.40984170,0.00044868,0.00002275,0.00
 006704,-0.00008716,0.00013784,-0.00000105,0.00031000,-0.00022891,0.000
 03146,-0.00011431,0.00024177,0.00022206,0.00147561,-0.00427607,-0.0061
 8353,0.00699921,0.00229449,0.00400496,0.00964970,0.01800089,0.00541051
 ,-0.09013180,-0.14366719,-0.12306653,-0.03146223,-0.01441178,-0.060744
 96,-0.00583776,0.00165018,0.00047329,0.00045444,0.00432412,-0.00065732
 ,0.00079583,-0.00222036,0.00057234,-0.00007620,0.00019292,-0.00013761,
 0.00000088,0.00006096,-0.00000079,-0.00004718,0.00015673,-0.00001348,0
 .00000806,0.00006938,0.00003812,0.00012373,0.00041068,0.00020681,-0.00
 000292,-0.00002051,0.00000633,0.00005361,-0.00014638,-0.00004208,-0.00
 355215,0.00218660,0.00294911,0.00031249,-0.00017199,0.00042804,0.00104
 755,-0.00040575,0.00162080,-0.00292622,0.00376919,0.00067816,0.1079032
 9,0.13952424,0.00027837,0.00007568,-0.00010960,0.00010013,0.00006397,0
 .00003910,-0.00043376,0.00018784,0.00019318,0.00064012,-0.00030446,-0.
 00024611,0.00147615,-0.00046171,-0.00133979,-0.00427136,0.00164405,0.0
 0027561,-0.02285142,-0.00651621,-0.00103007,-0.32089763,-0.11637095,-0
 .43031016,-0.03087358,-0.05487980,-0.05863038,-0.00980208,0.00610135,-
 0.00322496,0.00050897,0.00248113,-0.00200564,0.00110203,-0.00298062,0.
 00130151,0.00003614,-0.00007236,-0.00032927,0.00019443,0.00009219,0.00
 010910,-0.00008598,-0.00013257,-0.00000075,-0.00007152,-0.00004723,0.0
 0009748,-0.00039992,0.00008406,0.00069594,-0.00005806,-0.00020413,0.00
 003675,-0.00016430,-0.00018949,-0.00022673,-0.00394269,0.00120898,0.00
 039842,-0.00114353,0.00011814,-0.00147698,0.00120360,0.00015874,0.0002
 6185,-0.00031992,0.00168121,0.00089196,0.38082971,0.18064359,0.4901065
 4,0.00031722,-0.00028389,0.00011773,-0.00011862,0.00016068,0.00005155,
 0.00041002,-0.00046979,0.00001414,-0.00061084,-0.00004488,-0.00072453,
 -0.00685501,0.00880959,0.01738493,-0.00314669,-0.00545837,-0.00539388,
 0.00276102,0.00284542,0.00102461,0.01473218,-0.00818668,0.00517703,-0.
 28449830,-0.05471424,-0.20046895,-0.01341338,-0.00592525,-0.00921855,0
 .00145028,0.00195232,-0.00082505,-0.00013301,-0.00090564,0.00030156,0.
 00007632,0.00001829,-0.00000153,-0.00027986,-0.00020318,-0.00020584,0.
 00009783,0.00021673,-0.00009645,0.00002782,0.00005803,-0.00015027,0.00
 079996,0.00007954,-0.00074040,0.00007885,0.00022643,-0.00018207,0.0000
 6537,-0.00003726,0.00001855,0.00635313,-0.00534306,-0.00834035,-0.0006
 4801,-0.00063219,0.00022736,-0.00011899,0.00013474,0.00028730,-0.00061
 724,-0.00007523,-0.00005535,0.00226139,0.00785848,0.00502503,0.2835307
 5,-0.00035528,-0.00022207,0.00018254,0.00002155,-0.00010622,0.00000368
 ,-0.00013596,0.00019603,-0.00006139,-0.00009221,0.00021096,0.00025369,
 0.00089652,0.00097637,0.00037306,0.00027565,-0.00113381,-0.00062499,0.
 00091013,0.00020067,-0.00071759,-0.02847284,-0.00147681,-0.00999233,-0
 .05532972,-0.08813637,-0.09038423,0.01666237,0.00838821,0.01959150,0.0
 0617537,0.00238178,0.00057728,-0.00151350,-0.00022025,-0.00002303,0.00
 011032,-0.00029576,0.00000294,-0.00003692,0.00003644,0.00001799,0.0000
 4184,-0.00009807,0.00001389,-0.00000402,-0.00006055,-0.00003301,-0.000
 22166,-0.00017325,0.00002231,-0.00001990,-0.00000563,0.00006127,-0.000
 03462,0.00007612,0.00004894,-0.00215393,-0.00386129,-0.00083811,-0.000
 04403,0.00003685,-0.00011431,0.00071183,-0.00141673,0.00047592,-0.0004
 4863,0.00016695,0.00064207,0.00323682,-0.00239945,-0.00777824,0.059503
 72,0.09051115,0.00038418,0.00030685,0.00018814,-0.00005069,-0.00005942
 ,-0.00011102,0.00006507,-0.00019280,0.00015194,0.00008623,-0.00023612,
 -0.00054849,0.00343426,0.00263787,0.00575139,-0.00047274,-0.00142564,-
 0.00281166,0.00150719,-0.00015054,0.00048132,-0.01497294,-0.00369232,-
 0.01932283,-0.18956098,-0.08323060,-0.18415819,0.00360588,0.00519679,0
 .00227508,-0.00313127,0.00049199,-0.00033361,0.00109815,-0.00096708,0.
 00018068,-0.00007537,0.00020327,0.00006511,-0.00009249,0.00000035,-0.0
 0004692,-0.00001132,0.00006601,-0.00005019,-0.00006595,0.00000237,0.00
 001400,0.00016413,-0.00000783,-0.00023885,0.00001406,0.00002393,-0.000
 09934,0.00012277,0.00002449,-0.00002478,-0.00027068,-0.00156343,-0.007
 31382,-0.00001748,-0.00008020,-0.00011501,-0.00032583,0.00040267,-0.00
 000160,-0.00045967,0.00053484,-0.00025412,0.00005364,-0.00534375,0.003
 86961,0.19574074,0.08959461,0.20137857,-0.00003538,0.00004409,0.000037
 98,0.00001149,-0.00004904,-0.00002922,-0.00004549,0.00004165,0.0000099
 5,0.00003405,0.00002256,-0.00001770,0.00027707,0.00039194,0.00064919,-
 0.00005706,-0.00034786,-0.00023488,0.00078015,0.00143145,-0.00013150,-
 0.00540770,-0.00404813,-0.00418540,-0.01857913,0.01627940,0.02417213,-
 0.10881163,0.01415987,0.11202262,-0.00719227,-0.00267086,0.01458252,0.
 00002987,0.00130662,-0.00137804,-0.00013035,-0.00061478,-0.00047848,-0
 .00000216,0.00000530,0.00000390,0.00000159,-0.00002395,0.00000117,-0.0
 0001670,-0.00001791,0.00000233,-0.00005685,-0.00006824,-0.00001598,-0.
 00000471,-0.00000623,0.00000070,0.00001101,0.00003252,0.00000689,-0.00
 000416,-0.00022150,-0.00047979,0.00003385,-0.00000269,-0.00005434,-0.0
 0020962,0.00010198,0.00001464,-0.00028001,0.00022478,-0.00008913,0.002
 05273,-0.00077706,0.00194742,-0.00004161,-0.00020865,0.00046091,0.1242
 4711,0.00020268,-0.00004936,0.00005995,-0.00001994,0.00004822,-0.00001
 145,0.00005565,-0.00009156,0.00003316,-0.00005569,-0.00002326,0.000002
 83,-0.00034368,-0.00029145,-0.00030368,0.00016427,0.00024369,0.0001543
 6,-0.00060262,-0.00103047,-0.00020180,0.00441846,0.00248035,0.00160709
 ,0.01609652,-0.01090449,-0.02214739,0.01271140,-0.05510765,-0.02025102
 ,-0.01574718,0.00848210,0.03280411,0.00132881,-0.00189768,-0.00201014,
 -0.00017419,0.00027413,-0.00077801,-0.00002745,0.00000634,-0.00001582,
 -0.00000535,0.00004686,-0.00001805,0.00001959,0.00003055,-0.00000450,0
 .00008476,0.00007831,-0.00001102,0.00000750,0.00001387,-0.00000664,-0.
 00000191,-0.00004213,-0.00000941,0.00027486,0.00011557,0.00022418,-0.0
 0005061,-0.00001878,0.00007483,0.00014564,-0.00005330,0.00001500,0.000
 28479,-0.00019471,0.00008372,-0.00073089,-0.00074682,-0.00082717,-0.00
 059581,0.00031967,0.00022953,-0.02240710,0.06531628,-0.00006586,-0.000
 01027,-0.00003317,0.00000345,0.00000199,0.00001742,0.00000832,0.000011
 83,-0.00001581,-0.00001555,0.00000108,0.00000197,-0.00009972,0.0000461
 1,0.00008071,0.00016638,-0.00010035,0.00003053,0.00023183,0.00050919,-
 0.00031308,-0.00157338,0.00063255,-0.00073191,-0.00348360,-0.00043328,
 0.01279048,0.11407967,-0.02532501,-0.26737641,0.00674224,-0.00352899,-
 0.01105260,-0.00106487,0.00082606,0.00113010,-0.00008340,0.00033693,0.
 00033718,-0.00000341,-0.00001002,-0.00000053,0.00000861,-0.00000366,0.
 00000300,0.00000411,-0.00000256,-0.00000190,0.00002607,-0.00000276,-0.
 00001430,0.00000212,0.00001004,0.00000221,-0.00001261,-0.00000104,0.00
 000419,0.00017778,-0.00000767,-0.00004323,-0.00002069,0.00001054,0.000
 00692,-0.00007985,0.00007173,-0.00001332,-0.00001701,0.00005538,-0.000
 01613,0.00094510,-0.00078807,0.00069596,0.00000047,-0.00078364,0.00019
 379,-0.12614919,0.02740030,0.28222104,-0.00003486,0.00002029,-0.000020
 03,0.00001526,-0.00000829,0.00000914,-0.00001715,0.00003019,-0.0000089
 0,0.00002295,0.00000892,0.00004894,0.00021983,-0.00046011,-0.00096779,
 0.00036493,0.00027795,0.00034001,-0.00003206,-0.00004563,-0.00001195,-
 0.00249390,-0.00279224,-0.00561799,-0.02633071,-0.00760342,-0.02067887
 ,-0.16590335,-0.07235902,-0.11747022,-0.00886722,-0.00825584,-0.005767
 07,0.00000227,0.00236497,-0.00011626,-0.00001310,-0.00009501,0.0007457
 8,0.00001216,0.00000700,0.00001055,0.00000161,-0.00001062,0.00000533,0
 .00000478,-0.00000380,0.00000842,-0.00001940,-0.00000187,0.00003584,-0
 .00000289,-0.00000273,0.00001425,-0.00001821,-0.00000405,-0.00000069,-
 0.00112241,0.00021007,0.00030206,-0.00000220,0.00003446,-0.00001150,0.
 00012409,-0.00008379,0.00008257,-0.00000325,0.00008415,0.00003644,0.00
 324972,-0.00151499,0.00214288,-0.00143966,0.00369808,0.00169117,0.0131
 6945,0.00814709,0.01076336,0.18831324,0.00008915,0.00000121,0.00001379
 ,0.00000465,0.00000342,-0.00000367,-0.00001286,-0.00001971,0.00001616,
 0.00000042,-0.00002099,-0.00005325,-0.00018615,0.00049289,0.00098026,-
 0.00046343,-0.00032931,-0.00033533,-0.00002512,0.00013000,-0.00027685,
 0.00310851,0.00245635,0.00314984,0.02020550,0.01026017,0.01823532,-0.0
 8173316,-0.10656483,-0.08199846,-0.02254701,-0.01186704,-0.02467819,0.
 00195249,0.00048212,0.00217265,0.00004352,0.00047270,0.00061973,-0.000
 00613,-0.00000459,-0.00000607,-0.00000289,0.00000497,-0.00000713,-0.00
 000660,-0.00000019,-0.00000306,0.00000600,-0.00001117,-0.00002254,0.00
 000168,0.00000160,-0.00001020,0.00000570,0.00000283,-0.00000650,0.0010
 1872,-0.00018415,-0.00033856,-0.00001882,-0.00001125,-0.00002334,-0.00
 020369,0.00015681,-0.00006186,0.00005627,-0.00008773,-0.00001285,-0.00
 214772,-0.00232500,-0.00164075,0.00213261,-0.00362342,-0.00120674,-0.0
 0047671,-0.00036866,-0.00076220,0.07938675,0.11394021,-0.00015152,0.00
 001609,-0.00001226,0.00000983,-0.00003317,-0.00001138,-0.00003746,0.00
 005961,-0.00002260,0.00004067,-0.00000558,0.00002883,0.00013682,0.0001
 7371,0.00018102,-0.00033328,-0.00005253,-0.00015909,-0.00021631,-0.000
 11233,-0.00004468,0.00040719,-0.00116934,0.00070465,-0.00472275,0.0016
 0846,-0.00285144,-0.12271049,-0.07389528,-0.17191568,0.01029062,0.0042
 8051,0.01459587,-0.00066056,0.00016665,-0.00101463,0.00023688,-0.00046
 549,-0.00002951,0.00001430,-0.00000273,0.00000817,0.00000408,-0.000030
 93,0.00001137,-0.00000714,-0.00001789,0.00000004,-0.00005441,-0.000056
 06,-0.00000636,-0.00000448,-0.00000566,0.00000588,0.00000802,0.0000336
 0,0.00001437,-0.00019226,-0.00005145,-0.00011401,0.00002855,0.00000397
 ,-0.00003183,-0.00009175,0.00004345,-0.00001042,0.00002910,-0.00002168
 ,0.00004216,0.00137048,-0.00110319,-0.00176639,0.00069375,0.00032425,0
 .00063458,-0.01959672,-0.01351960,-0.01820095,0.13312217,0.08131711,0.
 18442201,-0.00028284,-0.00021183,0.00055122,-0.00221424,0.00057813,-0.
 00061117,-0.00041616,-0.00162917,0.00110418,-0.00000678,-0.00046577,-0
 .00059850,-0.00037253,-0.00239165,-0.00125898,0.00122516,0.00168928,0.
 00036465,-0.00104863,-0.00127582,0.00008999,-0.00049456,0.00015003,0.0
 0095656,0.00629190,0.00332188,-0.00346026,-0.02674020,-0.01115062,0.00
 992503,-0.72169639,-0.22817158,0.13677229,-0.11391129,0.02162479,0.006
 94083,-0.00063984,-0.00830360,0.00213956,-0.00004043,0.00029815,-0.000
 08226,-0.00043388,0.00083127,-0.00044481,-0.00004244,0.00037054,0.0000
 5270,0.00011764,0.00104175,0.00049270,0.00001537,-0.00021399,-0.000186
 97,0.00021745,-0.00055297,-0.00043008,0.00051470,0.00193134,0.00033063
 ,0.00007642,-0.00033833,0.00011783,0.00014157,0.00000294,-0.00011757,0
 .00027814,-0.00001260,0.00000372,0.00158728,-0.00091161,-0.00016923,-0
 .00104091,-0.00317232,0.00107904,0.00022645,-0.00317962,-0.00049038,0.
 00080010,-0.00018168,0.00238668,0.85788896,0.00223300,-0.00042333,0.00
 000883,-0.00085355,0.00072296,0.00009792,0.00019312,-0.00074747,0.0004
 8847,-0.00037824,-0.00027431,-0.00024973,-0.00191998,-0.00084856,-0.00
 040369,0.00148447,0.00048544,0.00042810,-0.00077614,-0.00039877,-0.000
 05899,-0.00085042,0.00510450,0.00356219,-0.00213898,-0.00027127,-0.001
 58794,-0.04061936,-0.00370598,0.01378575,-0.21204130,-0.20730634,0.062
 19078,0.03468530,0.03679507,-0.00498055,-0.00744782,0.00551824,-0.0035
 0176,-0.00012982,0.00005849,-0.00009774,-0.00011949,0.00037432,-0.0001
 8578,0.00007912,0.00024368,0.00000289,0.00042963,0.00063795,0.00007977
 ,0.00004580,-0.00000962,-0.00006377,-0.00005714,-0.00036623,-0.0001595
 8,0.00175078,0.00041771,0.00027721,-0.00030464,-0.00005784,0.00022263,
 0.00016712,0.00002852,-0.00005256,0.00024751,-0.00009287,-0.00003080,0
 .00024910,-0.00202252,-0.00213524,-0.00112110,-0.00027154,-0.00155911,
 -0.00210146,-0.00663560,0.00184579,-0.00102854,-0.00298724,0.00251550,
 0.23032304,0.17603262,-0.00092483,-0.00050029,-0.00121151,0.00036795,0
 .00012725,0.00053055,-0.00016737,0.00043392,-0.00001424,0.00007626,0.0
 0001285,-0.00006120,0.00050463,-0.00039405,-0.00153342,0.00002417,-0.0
 0008068,0.00075039,0.00024222,0.00036495,-0.00011814,0.00068249,-0.000
 82199,-0.00232820,-0.00033270,-0.00057972,0.00058927,0.01964502,0.0124
 9853,0.02301183,0.13283604,0.06407712,-0.11744164,0.00182093,-0.003799
 50,0.03304454,0.00193420,-0.00363543,-0.00611322,0.00021637,-0.0001172
 2,0.00012575,0.00004594,-0.00010342,0.00007895,-0.00001034,-0.00005614
 ,0.00003841,-0.00007826,-0.00004347,0.00014896,-0.00000645,-0.00001509
 ,0.00004983,-0.00019272,0.00000292,-0.00005242,-0.00115451,0.00057092,
 0.00077962,-0.00004207,0.00020239,-0.00019274,-0.00005035,-0.00002439,
 0.00003399,-0.00009046,0.00005516,0.00000960,-0.00046767,0.00072975,0.
 00172384,0.00033847,-0.00083507,0.00024622,-0.00107196,-0.00257337,0.0
 0029783,0.00131236,0.00494269,-0.00445772,-0.15545736,-0.07043861,0.07
 206489\\0.,-0.00000033,0.00000159,0.00000064,0.00000052,0.00000076,-0.
 00000130,-0.00000308,0.00000231,0.00000118,0.00000087,0.00000082,-0.00
 000125,0.00000053,0.00000126,0.00000148,0.00000120,-0.00000315,-0.0000
 0168,-0.00000055,0.00000103,-0.00000025,-0.00000085,0.00000303,0.00000
 688,0.00000901,-0.00001275,-0.00000275,-0.00000256,0.00000008,0.000000
 49,0.00000029,-0.00000161,-0.00000025,-0.00000074,-0.00000248,0.000000
 88,0.00000104,-0.00000116,-0.00000084,-0.00000061,0.00000254,-0.000000
 60,0.00000008,0.00000248,-0.00000190,-0.00000124,0.00000275,0.00000101
 ,-0.00000316,0.00000315,0.00000212,0.00000275,0.00000177,-0.00000090,0
 .00000035,0.00000099,0.00000282,-0.00000038,0.00000179,0.00000041,-0.0
 0000042,0.00000062,-0.00000138,-0.00000062,-0.00000159,0.00000092,0.00
 000066,-0.00000232,-0.00000194,-0.00000150,-0.00000245,-0.00000661,-0.
 00000323,0.00000274,-0.00000020,0.00000008,-0.00000131,0.00000056,0.00
 000100,-0.00000191,0.00000248,0.00000087,0.00000102\\\@


 IT PROBABLY IS NOT POSSIBLE FOR A SCIENTIST TO INTERROGATE NATURE 
 FROM A WHOLLY DISINTERESTED VIEWPOINT.
 EVEN IF HE HAS NO PARTICULAR AXE TO GRIND, HE IS LIKELY TO HAVE 
 A DISTINCTIVE WAY OF VIEWING NATURE.

                                                   -- JOHN LOSEE
 Job cpu time:  0 days  1 hours 45 minutes 44.6 seconds.
 File lengths (MBytes):  RWF=    293 Int=      0 D2E=      0 Chk=      8 Scr=      1
 Normal termination of Gaussian 03 at Sun Jun 12 07:16:53 2011.
